128
Lattice="10.48918528 0.0 0.0 0.0 12.90922527 0.0 0.0 0.0 24.49084448" Properties=species:S:1:pos:R:3:forces:R:3 energy=-525.85160941 stress="-0.00838739839012885 -0.0 -0.0 -0.0 -0.008146443669539283 -0.0 -0.0 -0.0 -0.008340737435881077" free_energy=-525.85160941 pbc="T T T"
S        8.97737103      12.30331800      23.27556445       0.00502556      -0.00239711      -0.00075794
S        1.51181425       0.60590727       1.21528003      -0.00502556       0.00239711       0.00075794
S        9.37870321      10.28782622      23.27556445      -0.00502556       0.00239711      -0.00075794
S        1.11048207       2.62139905       1.21528003       0.00502556      -0.00239711       0.00075794
S        9.37870321      12.30331800      19.58341339      -0.00502556      -0.00239711       0.00075794
S        1.11048207       0.60590727       4.90743109       0.00502556       0.00239711      -0.00075794
S        8.97737103      10.28782622      19.58341339       0.00502556       0.00239711       0.00075794
S        1.51181425       2.62139905       4.90743109      -0.00502556      -0.00239711      -0.00075794
S        8.97737103       5.84870537      11.03014221       0.00502556      -0.00239711      -0.00075794
S        1.51181425       7.06051990      13.46070227      -0.00502556       0.00239711       0.00075794
S        9.37870321       3.83321359      11.03014221      -0.00502556       0.00239711      -0.00075794
S        1.11048207       9.07601168      13.46070227       0.00502556      -0.00239711       0.00075794
S        9.37870321       5.84870537       7.33799115      -0.00502556      -0.00239711       0.00075794
S        1.11048207       7.06051990      17.15285333       0.00502556       0.00239711      -0.00075794
S        8.97737103       3.83321359       7.33799115       0.00502556       0.00239711       0.00075794
S        1.51181425       9.07601168      17.15285333      -0.00502556      -0.00239711      -0.00075794
S        3.73277839      12.30331800      11.03014221       0.00502556      -0.00239711      -0.00075794
S        6.75640689       0.60590727      13.46070227      -0.00502556       0.00239711       0.00075794
S        4.13411057      10.28782622      11.03014221      -0.00502556       0.00239711      -0.00075794
S        6.35507471       2.62139905      13.46070227       0.00502556      -0.00239711       0.00075794
S        4.13411057      12.30331800       7.33799115      -0.00502556      -0.00239711       0.00075794
S        6.35507471       0.60590727      17.15285333       0.00502556       0.00239711      -0.00075794
S        3.73277839      10.28782622       7.33799115       0.00502556       0.00239711       0.00075794
S        6.75640689       2.62139905      17.15285333      -0.00502556      -0.00239711      -0.00075794
S        3.73277839       5.84870537      23.27556445       0.00502556      -0.00239711      -0.00075794
S        6.75640689       7.06051990       1.21528003      -0.00502556       0.00239711       0.00075794
S        4.13411057       3.83321359      23.27556445      -0.00502556       0.00239711      -0.00075794
S        6.35507471       9.07601168       1.21528003       0.00502556      -0.00239711       0.00075794
S        4.13411057       5.84870537      19.58341339      -0.00502556      -0.00239711       0.00075794
S        6.35507471       7.06051990       4.90743109       0.00502556       0.00239711      -0.00075794
S        3.73277839       3.83321359      19.58341339       0.00502556       0.00239711       0.00075794
S        6.75640689       9.07601168       4.90743109      -0.00502556      -0.00239711      -0.00075794
S        8.20878322       0.40479845       1.87559410       0.00104293       0.00136056      -0.00561983
S        2.28040206      12.50442695      22.61524965      -0.00104293      -0.00136056       0.00561983
S       10.14729102       9.27712063       1.87559410      -0.00104293      -0.00136056      -0.00561983
S        0.34189426       3.63210464      22.61524965       0.00104293       0.00136056       0.00561983
S       10.14729102       0.40479845      16.49253853      -0.00104293       0.00136056       0.00561983
S        0.34189426      12.50442695       7.99830522       0.00104293      -0.00136056      -0.00561983
S        8.20878322       9.27712063      16.49253853       0.00104293      -0.00136056       0.00561983
S        2.28040206       3.63210464       7.99830522      -0.00104293       0.00136056      -0.00561983
S        8.20878322       6.85941096      14.12101707       0.00104293       0.00136056      -0.00561983
S        2.28040206       6.04981431      10.36982814      -0.00104293      -0.00136056       0.00561983
S       10.14729102       2.82250787      14.12101707      -0.00104293      -0.00136056      -0.00561983
S        0.34189426      10.08671727      10.36982814       0.00104293       0.00136056       0.00561983
S       10.14729102       6.85941096       4.24711702      -0.00104293       0.00136056       0.00561983
S        0.34189426       6.04981431      20.24372819       0.00104293      -0.00136056      -0.00561983
S        8.20878322       2.82250787       4.24711702       0.00104293      -0.00136056       0.00561983
S        2.28040206      10.08671727      20.24372819      -0.00104293       0.00136056      -0.00561983
S        2.96419058       0.40479845      14.12101707       0.00104293       0.00136056      -0.00561983
S        7.52499470      12.50442695      10.36982814      -0.00104293      -0.00136056       0.00561983
S        4.90269838       9.27712063      14.12101707      -0.00104293      -0.00136056      -0.00561983
S        5.58648690       3.63210464      10.36982814       0.00104293       0.00136056       0.00561983
S        4.90269838       0.40479845       4.24711702      -0.00104293       0.00136056       0.00561983
S        5.58648690      12.50442695      20.24372819       0.00104293      -0.00136056      -0.00561983
S        2.96419058       9.27712063       4.24711702       0.00104293      -0.00136056       0.00561983
S        7.52499470       3.63210464      20.24372819      -0.00104293       0.00136056      -0.00561983
S        2.96419058       6.85941096       1.87559410       0.00104293       0.00136056      -0.00561983
S        7.52499470       6.04981431      22.61524965      -0.00104293      -0.00136056       0.00561983
S        4.90269838       2.82250787       1.87559410      -0.00104293      -0.00136056      -0.00561983
S        5.58648690      10.08671727      22.61524965       0.00104293       0.00136056       0.00561983
S        4.90269838       6.85941096      16.49253853      -0.00104293       0.00136056       0.00561983
S        5.58648690       6.04981431       7.99830522       0.00104293      -0.00136056      -0.00561983
S        2.96419058       2.82250787      16.49253853       0.00104293      -0.00136056       0.00561983
S        7.52499470      10.08671727       7.99830522      -0.00104293       0.00136056      -0.00561983
S        7.42000467      12.68596758       0.08007184       0.00505764       0.00045426       0.00140222
S        3.06918061       0.22325769      24.41077264      -0.00505764      -0.00045426      -0.00140222
S        0.44688429       9.90517665       0.08007184      -0.00505764      -0.00045426       0.00140222
S       10.04230099       3.00404862      24.41077264       0.00505764       0.00045426      -0.00140222
S        0.44688429      12.68596758      18.28806152      -0.00505764       0.00045426      -0.00140222
S       10.04230099       0.22325769       6.20278296       0.00505764      -0.00045426       0.00140222
S        7.42000467       9.90517665      18.28806152       0.00505764      -0.00045426      -0.00140222
S        3.06918061       3.00404862       6.20278296      -0.00505764       0.00045426       0.00140222
S        7.42000467       6.23135494      12.32549408       0.00505764       0.00045426       0.00140222
S        3.06918061       6.67787033      12.16535040      -0.00505764      -0.00045426      -0.00140222
S        0.44688429       3.45056401      12.32549408      -0.00505764      -0.00045426       0.00140222
S       10.04230099       9.45866126      12.16535040       0.00505764       0.00045426      -0.00140222
S        0.44688429       6.23135494       6.04263953      -0.00505764       0.00045426      -0.00140222
S       10.04230099       6.67787033      18.44820520       0.00505764      -0.00045426       0.00140222
S        7.42000467       3.45056401       6.04263953       0.00505764      -0.00045426      -0.00140222
S        3.06918061       9.45866126      18.44820520      -0.00505764       0.00045426       0.00140222
S        2.17541203      12.68596758      12.32549408       0.00505764       0.00045426       0.00140222
S        8.31377325       0.22325769      12.16535040      -0.00505764      -0.00045426      -0.00140222
S        5.69147693       9.90517665      12.32549408      -0.00505764      -0.00045426       0.00140222
S        4.79770835       3.00404862      12.16535040       0.00505764       0.00045426      -0.00140222
S        5.69147693      12.68596758       6.04263953      -0.00505764       0.00045426      -0.00140222
S        4.79770835       0.22325769      18.44820520       0.00505764      -0.00045426       0.00140222
S        2.17541203       9.90517665       6.04263953       0.00505764      -0.00045426      -0.00140222
S        8.31377325       3.00404862      18.44820520      -0.00505764       0.00045426       0.00140222
S        2.17541203       6.23135494       0.08007184       0.00505764       0.00045426       0.00140222
S        8.31377325       6.67787033      24.41077264      -0.00505764      -0.00045426      -0.00140222
S        5.69147693       3.45056401       0.08007184      -0.00505764      -0.00045426       0.00140222
S        4.79770835       9.45866126      24.41077264       0.00505764       0.00045426      -0.00140222
S        5.69147693       6.23135494      18.28806152      -0.00505764       0.00045426      -0.00140222
S        4.79770835       6.67787033       6.20278296       0.00505764      -0.00045426       0.00140222
S        2.17541203       3.45056401      18.28806152       0.00505764      -0.00045426      -0.00140222
S        8.31377325       9.45866126       6.20278296      -0.00505764       0.00045426       0.00140222
S        8.24317610      11.72864719       3.18809960      -0.00159125       0.00284086       0.00109033
S        2.24600918       1.18057808      21.30274464       0.00159125      -0.00284086      -0.00109033
S       10.11289814      10.86249704       3.18809960       0.00159125      -0.00284086       0.00109033
S        0.37628714       2.04672823      21.30274464      -0.00159125       0.00284086      -0.00109033
S       10.11289814      11.72864719      15.18003352       0.00159125       0.00284086      -0.00109033
S        0.37628714       1.18057808       9.31081096      -0.00159125      -0.00284086       0.00109033
S        8.24317610      10.86249704      15.18003352      -0.00159125      -0.00284086      -0.00109033
S        2.24600918       2.04672823       9.31081096       0.00159125       0.00284086       0.00109033
S        8.24317610       5.27403455      15.43352208      -0.00159125       0.00284086       0.00109033
S        2.24600918       7.63519072       9.05732240       0.00159125      -0.00284086      -0.00109033
S       10.11289814       4.40788440      15.43352208       0.00159125      -0.00284086       0.00109033
S        0.37628714       8.50134087       9.05732240      -0.00159125       0.00284086      -0.00109033
S       10.11289814       5.27403455       2.93461152       0.00159125       0.00284086      -0.00109033
S        0.37628714       7.63519072      21.55623320      -0.00159125      -0.00284086       0.00109033
S        8.24317610       4.40788440       2.93461152      -0.00159125      -0.00284086      -0.00109033
S        2.24600918       8.50134087      21.55623320       0.00159125       0.00284086       0.00109033
S        2.99858346      11.72864719      15.43352208      -0.00159125       0.00284086       0.00109033
S        7.49060182       1.18057808       9.05732240       0.00159125      -0.00284086      -0.00109033
S        4.86830550      10.86249704      15.43352208       0.00159125      -0.00284086       0.00109033
S        5.62087978       2.04672823       9.05732240      -0.00159125       0.00284086      -0.00109033
S        4.86830550      11.72864719       2.93461152       0.00159125       0.00284086      -0.00109033
S        5.62087978       1.18057808      21.55623320      -0.00159125      -0.00284086       0.00109033
S        2.99858346      10.86249704       2.93461152      -0.00159125      -0.00284086      -0.00109033
S        7.49060182       2.04672823      21.55623320       0.00159125       0.00284086       0.00109033
S        2.99858346       5.27403455       3.18809960      -0.00159125       0.00284086       0.00109033
S        7.49060182       7.63519072      21.30274464       0.00159125      -0.00284086      -0.00109033
S        4.86830550       4.40788440       3.18809960       0.00159125      -0.00284086       0.00109033
S        5.62087978       8.50134087      21.30274464      -0.00159125       0.00284086      -0.00109033
S        4.86830550       5.27403455      15.18003352       0.00159125       0.00284086      -0.00109033
S        5.62087978       7.63519072       9.31081096      -0.00159125      -0.00284086       0.00109033
S        2.99858346       4.40788440      15.18003352      -0.00159125      -0.00284086      -0.00109033
S        7.49060182       8.50134087       9.31081096       0.00159125       0.00284086       0.00109033
