2
Lattice="3.35384128 0.0 0.0 0.0 3.35384128 0.0 0.0 0.0 3.35384128" Properties=species:S:1:pos:R:3:forces:R:3 energy=-7.55514851 stress="-0.0005756199522743655 0.0 -0.0 0.0 -0.0005756199522743655 -0.0 -0.0 -0.0 -0.0005756199522743655" free_energy=-7.55531811 pbc="T T T"
Li       0.00000000       0.00000000       0.00000000       0.00000000       0.00000000       0.00000000
Li       1.67692064       1.67692064       1.67692064       0.00000000       0.00000000       0.00000000
