112
Lattice="10.0 0.0 0.0 0.0 17.271038055419922 0.0 0.0 0.0 27.68430519104004" Properties=species:S:1:pos:R:3:forces:R:3 energy=-932.059814453125 pbc="T T T"
C        2.50230836      14.83872270      -0.00783277       0.00056956       0.00199119       0.00323220
C        2.50132324      16.09200206       2.09762604       0.00021297      -0.00299557       0.01364821
C        2.49187660       0.01241878       4.28323190       0.00015685       0.01225084       0.00395511
C        2.50374407      12.36232025      -0.00434796      -0.00303045      -0.00024263       0.00392568
C        2.50195511      13.61691455       2.09655924      -0.00253371       0.00422418       0.00728443
C        2.49163051      14.86891802       4.15476047      -0.00085210       0.01563237       0.01606256
C        2.50210440       9.88635144       0.01944252      -0.00539699      -0.00602233       0.00516593
C        2.50004268      11.16974173       2.12908875      -0.00544156      -0.00254161      -0.00402325
C        2.48739896      12.46210599       4.28156548       0.00026838       0.00254181      -0.00031897
C        2.49852307       7.42198732       0.03971608      -0.00341329       0.00389661       0.00835046
C        2.49355132       8.67378670       2.19664386      -0.00271141      -0.00039102       0.01336309
C        2.48029679      10.00316511       4.22176309       0.00126609       0.01225761       0.00449255
C        2.49823137       4.98335090       0.04049476      -0.00224714       0.00703031      -0.00091483
C        2.49031741       6.22113466       2.26815887      -0.00015640      -0.00706832      -0.00202253
C        2.47718264       7.53163783       4.49919063       0.00154693      -0.01900056      -0.02230668
C        2.50120812       2.51972145       0.01975994      -0.00343373       0.00133888      -0.00128410
C        2.49494906       3.76616526       2.19934574      -0.00311346       0.00155383      -0.00875309
C        2.48056183       4.95035126       4.49901876       0.00223712      -0.00350992      -0.00829872
C        2.50246290       0.04421128      -0.00432537      -0.00209875      -0.00918339       0.00345394
C        2.50051835       1.26866332       2.12929963      -0.00393649      -0.00572927      -0.00766402
C        2.48764218       2.46796763       4.22227240      -0.00145778       0.00515711      -0.01417884
C        2.50282316      16.08307761       0.65786948      -0.00073677      -0.00368202       0.01491361
C        2.49860108       0.03612730       2.82624463      -0.00090883      -0.00055819       0.00521405
C        2.48613982       1.23085431       4.95504208       0.00112910       0.00968748      -0.00597243
C        2.50397117      13.60416248       0.65721645      -0.00243975       0.00406168       0.00577040
C        2.49920192      14.85837096       2.76768325      -0.00098909       0.00139434       0.02072276
C        2.48806980      16.04704268       4.94414631       0.00016221       0.01812738       0.01984984
C        2.50419393      11.13917850       0.68086349      -0.00821242      -0.00447533      -0.00264996
C        2.49763301      12.41370909       2.82574209      -0.00307918      -0.00137326      -0.00208635
C        2.48504680      13.70569914       4.95003415       0.00279755       0.00851578       0.00023612
C        2.49925748       8.66029034       0.72359418      -0.00581475      -0.00106980       0.01279812
C        2.49230623       9.94296487       2.83254464      -0.00215514       0.00583693       0.01109371
C        2.47757410      11.25364729       4.94827728       0.00539846       0.01213479       0.02364145
C        2.49589002       6.20921497       0.76673173      -0.00198924       0.00191648       0.00456914
C        2.48689930       7.47564379       2.99318605      -0.00190149      -0.01195171      -0.00605498
C        2.47214974       8.88387504       5.09076405       0.00794983      -0.00803578      -0.02464336
C        2.49884781       3.75662590       0.72584491      -0.00358588       0.00595793      -0.00509575
C        2.48845553       4.97966100       2.99228007      -0.00074411      -0.00280477      -0.00405371
C        2.47391590       6.24862273       5.27345378       0.00632997      -0.01181940      -0.01327881
C        2.50273673       1.27758442       0.68066390      -0.00444312      -0.00329103      -0.00623997
C        2.49558086       2.50435893       2.83452810      -0.00412435      -0.00088516      -0.01601628
C        2.47993558       3.60743330       5.08425413       0.00232690      -0.00162655      -0.00974530
C        2.50188894       5.63736727      13.81931006      -0.00189554      -0.00172056       0.00043631
C        2.48091137      14.17957644       8.76989283       0.00203554       0.03246582       0.01613609
C        2.48928140       3.44153714      10.12168840      -0.00082370       0.01349478       0.00649380
C        2.49240735       9.90922979      11.35411577      -0.00311916      -0.00447837      -0.01097137
C        2.49857852      16.38178222      12.54435375      -0.00393490      -0.00004297      -0.00582357
C        2.50024175       1.30583677      13.78507180      -0.00221539       0.00087900       0.00169320
C        2.47324915       9.77266068       8.85566378       0.00586177       0.00670863      -0.02728671
C        2.48915539      16.39014687      10.02199475      -0.00102669       0.01577820       0.01930838
C        2.49686036       5.59337755      11.40816676      -0.00399387       0.01011730       0.00091429
C        2.49761274      12.07474252      12.55820626      -0.00486478      -0.00132512      -0.00748123
C        2.49995990      14.27046167      13.77853902      -0.00271603      -0.00241527      -0.00797748
C        2.47971619       5.58710023       9.00236885       0.00272589       0.00398242       0.00172463
C        2.48383211      12.01879516      10.03935405       0.00174304       0.01009464       0.00361650
C        2.49497062       1.27542614      11.31235388      -0.00175121       0.01400665       0.01360954
C        2.50089189       7.75994783      12.62212118      -0.00563716      -0.00364316       0.00345381
C        2.50058362       9.96616829      13.80452287      -0.00352325       0.00118961      -0.00441860
C        2.48312187       1.34004564       8.79569459       0.00182295       0.00313303       0.01423968
C        2.48547669       7.73512081      10.18190401       0.00001605       0.01139960      -0.00709879
C        2.49366050      14.22131209      11.28650165      -0.00421837       0.00308459      -0.00375250
C        2.49998000       3.42481245      12.59419249      -0.00255942       0.00345285       0.00841740
C        2.50200099       7.02680095      13.82494705      -0.00281776      -0.00431140       0.00401562
C        2.48321824      15.65621672       8.76673309      -0.00017683       0.02304186       0.02090375
C        2.48927856       4.86148705      10.18083649      -0.00226845       0.01035707       0.00203128
C        2.49168859      11.34127957      11.31809000      -0.00251036      -0.00029057      -0.00484924
C        2.49869469       0.56609459      12.55729808      -0.00277220       0.00136232       0.00331669
C        2.50055862       2.69902981      13.80688069      -0.00218213      -0.00205224       0.00466480
C        2.47484310      11.23114700       8.79942208       0.00464755       0.02183299      -0.00500767
C        2.48928314       0.57360983      10.03576465      -0.00051679       0.01371062       0.02100952
C        2.49598565       7.02461730      11.41042304      -0.00393270       0.00855488      -0.00001590
C        2.49788364      13.52991736      12.54810145      -0.00452587      -0.00044735      -0.00856760
C        2.50000140      15.66571008      13.78214667      -0.00214622      -0.00340543      -0.00888737
C        2.47725749       6.99044496       9.00326864       0.00263639      -0.00838706       0.00353786
C        2.48605523      13.47177915      10.02751688      -0.00049282       0.01174920      -0.00022309
C        2.49560995       2.70837528      11.34941310      -0.00154648       0.01272261       0.00825935
C        2.49932198       9.21556898      12.60034380      -0.00528862      -0.00308888      -0.00351642
C        2.50004940      11.35911256      13.79203837      -0.00329036      -0.00021409      -0.00528606
C        2.48191570       2.80251649       8.84618726       0.00162898       0.00637373       0.00687346
C        2.48351090       9.15369551      10.13096155       0.00076422       0.01362721      -0.02127390
C        2.49456289      15.66628595      11.28572661      -0.00415613       0.00181366       0.00092515
C        2.50103756       4.88063300      12.62344773      -0.00296272       0.00033053       0.00038315
H        2.50000000       0.76337987      14.75224777       0.00000000       0.00000000       0.00000000
H        2.50000000       3.29876826      14.75224777       0.00000000       0.00000000       0.00000000
H        2.50000000       5.07768518      14.75224777       0.00000000       0.00000000       0.00000000
H        2.50000000       7.61652803      14.75224777       0.00000000       0.00000000       0.00000000
H        2.50000000       9.39544521      14.75224777       0.00000000       0.00000000       0.00000000
H        2.50000000      11.93428703      14.75224777       0.00000000       0.00000000       0.00000000
H        2.50000000      13.71320473      14.75224777       0.00000000       0.00000000       0.00000000
H        2.50000000      16.25204655      14.75224777       0.00000000       0.00000000       0.00000000
H        2.50000000       0.00777197      26.58787924       0.00000000       0.00000000       0.00000000
H        2.50000000       2.47511239      26.58787924       0.00000000       0.00000000       0.00000000
H        2.50000000       4.94228012      26.58787924       0.00000000       0.00000000       0.00000000
H        2.50000000       7.40962053      26.58787924       0.00000000       0.00000000       0.00000000
H        2.50000000       9.87696095      26.58787924       0.00000000       0.00000000       0.00000000
H        2.50000000      12.34412945      26.58787924       0.00000000       0.00000000       0.00000000
H        2.50000000      14.81146987      26.58787924       0.00000000       0.00000000       0.00000000
C        2.47592815      13.39141606       7.51950556       0.00342246       0.03218190       0.01021634
C        2.46994996       6.27129340       6.73937361       0.00437493      -0.01724686      -0.00575840
C        2.47179272      11.89618777       7.51666676       0.00594669       0.02419226       0.00898001
C        2.47401492       5.08262086       7.68588448       0.00464870      -0.00517753      -0.00314522
C        2.47944572       1.51448144       6.35431848       0.00097197       0.00031090       0.00075307
C        2.46616304       9.54282921       6.43286997       0.00126943      -0.03523302      -0.00858292
C        2.47896821      14.14928737       6.34016444       0.00030920       0.01312745       0.00253561
C        2.47583350       2.98457841       6.42691097       0.00317176      -0.00103125      -0.00339919
C        2.46921433      11.00585082       6.34861782       0.00644130      -0.00744432       0.01599024
C        2.48111754      15.63722652       6.33404375       0.00209492       0.00727832       0.01486254
C        2.47566589       3.64202816       7.62760140       0.00356716      -0.00158810      -0.00382897
C        2.46936444       7.48005220       7.68936730       0.00757370      -0.01781094      -0.00749874
C        2.46683629       8.91671911       7.64242416       0.00773514      -0.01968262      -0.02715913
C        2.48088017      16.42105713       7.51215102       0.00097902       0.00645745       0.01868770
C        2.48046744       0.64721369       7.51795643       0.00237687       0.00008237       0.01189519
