112
Lattice="10.0 0.0 0.0 0.0 17.271038055419922 0.0 0.0 0.0 27.68430519104004" Properties=species:S:1:pos:R:3:forces:R:3 energy=-933.518798828125 pbc="T T T"
C        2.50094631      14.77957802       0.00782322       0.00021599      -0.00521605      -0.00658935
C        2.50132672      16.02250506       2.11107053      -0.00707383      -0.00764913       0.00283754
C        2.49148036      -0.04076253       4.27295122       0.00127185      -0.00841781       0.01298364
C        2.49937536      12.30805412       0.02576066       0.00157712      -0.00585283      -0.01351418
C        2.49997092      13.53603004       2.15798874       0.00221467      -0.01415638      -0.00508776
C        2.49515290      14.80800471       4.19282421      -0.00300695      -0.01025008       0.00119463
C        2.49915456       9.85338241       0.04294272       0.00426778      -0.01045868       0.00186150
C        2.50110100      11.08129826       2.22465574       0.00140821       0.00517745      -0.01531149
C        2.50162729      12.36193701       4.41044830       0.00031311      -0.00410302       0.01306036
C        2.49907922       7.39522801       0.04314651       0.00731817      -0.00220620      -0.00081696
C        2.50265248       8.61064180       2.23833865       0.00169664      -0.00719039      -0.00368589
C        2.50862275       9.84693944       4.42891951      -0.00565721      -0.01251689       0.00477053
C        2.49932004       4.94020104       0.02540071       0.00538245      -0.00510494      -0.00362216
C        2.50330862       6.13991373       2.22414930      -0.00016056      -0.00993888      -0.00350411
C        2.50865025       7.34272132       4.42881521      -0.00609365      -0.01217218      -0.01325000
C        2.49962068       2.46897521       0.00812191      -0.00006995      -0.00625465      -0.00464189
C        2.50043052       3.68661673       2.15769100      -0.00115328      -0.00554146      -0.00380406
C        2.50675785       4.82778656       4.41128477      -0.00633364      -0.01957337       0.00774138
C        2.50155130      -0.01108454      -0.00405123      -0.00227973      -0.00629450      -0.00388590
C        2.49785431       1.20072757       2.11230779      -0.00089869      -0.00617564      -0.00075063
C        2.49538803       2.38696230       4.19366728       0.00912640      -0.01474716      -0.00393319
C        2.50247409      16.02155724       0.66799185      -0.00398129      -0.00723500       0.00421072
C        2.49768857      -0.02898370       2.81954240      -0.00713959      -0.00593132       0.00547887
C        2.49109327       1.17017463       4.94491443       0.01230929      -0.00119865      -0.00288066
C        2.49992715      13.54087913       0.69920780       0.00254297      -0.00784682      -0.00303730
C        2.49973401      14.78717310       2.80587539      -0.00096766      -0.01510342       0.00154839
C        2.48976313      16.01096988       4.94925202      -0.00064934      -0.00439036       0.00781456
C        2.49930349      11.08168126       0.74180912       0.00344722      -0.00478881      -0.00750828
C        2.50070445      12.32691313       2.92907531       0.00280952      -0.00675290       0.00163691
C        2.49509859      13.65216016       5.02947518       0.00187053      -0.00297260       0.00560442
C        2.49959632       8.61998590       0.74963232       0.00454749      -0.01388522       0.01025969
C        2.50399247       9.84642574       2.95950626       0.00115250      -0.00350585      -0.01532515
C        2.50816861      11.10634850       5.16034740      -0.01268943       0.00550281       0.00562170
C        2.49997782       6.15752935       0.74143461       0.00462984      -0.00122518       0.00212230
C        2.50535543       7.36502913       2.95839427      -0.00129350      -0.01248628      -0.01162804
C        2.51025070       8.58885237       5.15072541      -0.00066579      -0.02117020       0.01680300
C        2.49948725       3.69958121       0.69879135       0.00268823      -0.00560551       0.00279090
C        2.50449354       4.88473808       2.93036023      -0.00901867      -0.01265697       0.00152473
C        2.50777935       6.07291841       5.15970170       0.00479453       0.00192018      -0.00719078
C        2.50022964       1.21945328       0.66910100      -0.00200510      -0.00489188       0.00457485
C        2.49642341       2.42892803       2.80674228       0.00574553      -0.00275273      -0.00818662
C        2.50407336       3.52728600       5.03486354      -0.00767446      -0.01300609       0.00036937
C        2.49836562       5.66520692      13.79827965      -0.00270414       0.00438039      -0.00591929
C        2.48933431      14.29107912       8.83569124       0.01439308       0.00075811       0.00969101
C        2.50330387       3.49209587      10.09222670      -0.00969359       0.00933293       0.00292418
C        2.50518563       9.97275877      11.29387676      -0.00389267       0.00628668       0.01544522
C        2.49951166      16.43389184      12.56925150      -0.00615294       0.00454857      -0.00907557
C        2.50062586       1.34131256      13.79275670       0.00127622      -0.00503150       0.00899319
C        2.51092893      10.03907978       8.78661700       0.00278658      -0.00165129      -0.00008830
C        2.49222511      16.45839950      10.05804524       0.00590590       0.00082874      -0.00042340
C        2.49365616       5.65577228      11.33940398       0.00945857       0.01072529      -0.00110271
C        2.50216900      12.11265516      12.58075424      -0.00094497       0.00298681      -0.00756642
C        2.49992279      14.29803683      13.79788273      -0.00355286       0.00101217      -0.00083238
C        2.49664684       5.63570448       8.90482177       0.01261251       0.01079249       0.00691116
C        2.50429030      12.16082638      10.11422701      -0.00487670       0.01135356       0.01484374
C        2.50183039       1.33081109      11.32050054      -0.00066788       0.00463763       0.00290796
C        2.49803624       7.79830051      12.54859512       0.00001428       0.00453749       0.02169047
C        2.50298601       9.97230230      13.78387192      -0.00779387      -0.00448381      -0.00190574
C        2.50269987       1.36451500       8.80515729      -0.01225372       0.01368174      -0.00439882
C        2.49737031       7.81754167      10.00381019       0.01268539       0.00796070       0.00568512
C        2.49476403      14.30190211      11.33519995       0.00594579      -0.00278080       0.00965190
C        2.50006894       3.47616348      12.57644177      -0.00096232       0.00778338       0.01167879
C        2.49849281       7.06007249      13.78097019      -0.00135659       0.00954287       0.01949929
C        2.48624859      15.73773720       8.80624489       0.01404271      -0.00967717       0.00429151
C        2.49633910       4.92204598      10.11271915       0.00754148       0.00153438       0.00295290
C        2.50500515      11.40897105      11.33816714      -0.00346951       0.00357327       0.00256023
C        2.50082600       0.61537777      12.56682132      -0.00081838       0.00266521       0.00251229
C        2.50041837       2.73504095      13.79392223       0.00034122       0.00323726       0.01333995
C        2.51116257      11.46597563       8.90677283      -0.01619511       0.00098149       0.00106347
C        2.49919871       0.62532505      10.05618292      -0.00225794       0.00648573      -0.00512261
C        2.49382523       7.09213683      11.29543464       0.01409714       0.00735381       0.02064003
C        2.49889025      13.57301291      12.57524982       0.00110041       0.00246255       0.00325087
C        2.50036576      15.69209632      13.79109158      -0.00594751       0.01154953      -0.00802878
C        2.49945863       7.06481363       8.79087067      -0.00333820       0.02000320      -0.00104296
C        2.49509742      13.59138237      10.08941667       0.00748315       0.00593092       0.00924883
C        2.50249738       2.76375960      11.33477497      -0.00359244       0.00692030       0.00846437
C        2.50273535       9.25074146      12.54670774      -0.00407427      -0.00022054       0.00687372
C        2.50238867      11.36708525      13.79489092      -0.00232389       0.00509337      -0.00425209
C        2.50693974       2.81082436       8.83787599      -0.01572426       0.00945024      -0.00772260
C        2.50476300       9.26476154       9.99986719       0.00194371       0.01090525       0.00787362
C        2.49481220      15.73518819      11.32050285       0.00057527       0.00147012      -0.00299348
C        2.49700388       4.93593227      12.57933680       0.00045646       0.00786275      -0.00466944
H        2.50000000       0.76337987      14.75224777       0.00000000       0.00000000       0.00000000
H        2.50000000       3.29876826      14.75224777       0.00000000       0.00000000       0.00000000
H        2.50000000       5.07768518      14.75224777       0.00000000       0.00000000       0.00000000
H        2.50000000       7.61652803      14.75224777       0.00000000       0.00000000       0.00000000
H        2.50000000       9.39544521      14.75224777       0.00000000       0.00000000       0.00000000
H        2.50000000      11.93428703      14.75224777       0.00000000       0.00000000       0.00000000
H        2.50000000      13.71320473      14.75224777       0.00000000       0.00000000       0.00000000
H        2.50000000      16.25204655      14.75224777       0.00000000       0.00000000       0.00000000
H        2.50000000       0.00777197      26.58787924       0.00000000       0.00000000       0.00000000
H        2.50000000       2.47511239      26.58787924       0.00000000       0.00000000       0.00000000
H        2.50000000       4.94228012      26.58787924       0.00000000       0.00000000       0.00000000
H        2.50000000       7.40962053      26.58787924       0.00000000       0.00000000       0.00000000
H        2.50000000       9.87696095      26.58787924       0.00000000       0.00000000       0.00000000
H        2.50000000      12.34412945      26.58787924       0.00000000       0.00000000       0.00000000
H        2.50000000      14.81146987      26.58787924       0.00000000       0.00000000       0.00000000
C        2.51307867       9.78794881       7.32492652      -0.01262681      -0.01711822      -0.00252979
C        2.49427579      13.52077747       7.59848416       0.00563906       0.00379734      -0.00944614
C        2.49511579       0.66334674       7.52973190       0.00017295       0.00959191       0.00036582
C        2.50878315      12.10832680       7.62965458      -0.02242186       0.00246999       0.01219189
C        2.51143694       8.57226974       6.62109627      -0.01006017      -0.00676054       0.00851944
C        2.48556637      16.46067371       7.53403935       0.01528854      -0.00421484      -0.00035501
C        2.50572476       7.34427518       7.32900660       0.00046543       0.00206959       0.00012208
C        2.50747809       3.60098972       7.60580084      -0.00864031      -0.00057422       0.00466656
C        2.51012963      11.06681008       6.60541297       0.00553495      -0.00925028       0.00906193
C        2.49754008       1.48674237       6.34562676       0.00005049       0.01478964       0.00375128
C        2.48447595      15.66152060       6.35101243       0.01199903       0.00596029      -0.00320326
C        2.48837801      14.20141839       6.39375458       0.01002513      -0.00292948      -0.00872892
C        2.50212332       5.01380732       7.62809941       0.01241147       0.00708765       0.02040207
C        2.50630918       2.94559159       6.39752572      -0.01365379       0.00273189      -0.00222552
C        2.50582145       6.07832553       6.60462590      -0.00123272       0.03090298      -0.00563109
