112
Lattice="10.0 0.0 0.0 0.0 17.271038055419922 0.0 0.0 0.0 27.68430519104004" Properties=species:S:1:pos:R:3:forces:R:3 energy=-933.244384765625 pbc="T T T"
C        2.49975406      14.84414535       0.02215262      -0.00052657      -0.01254143       0.00153147
C        2.49564564      16.11369795       2.16827056       0.00070763      -0.00201687      -0.00235760
C        2.48976601       0.07118055       4.39775606       0.01084024      -0.01929675      -0.00380847
C        2.49936213      12.36698652       0.02286630       0.00172745      -0.00068183       0.02221408
C        2.49728469      13.61258373       2.16659732      -0.00684709       0.01500054      -0.00196052
C        2.49174562      14.88185448       4.22361587      -0.00220977      -0.00371829      -0.00251517
C        2.49807309       9.90863622       0.02917561      -0.00080108       0.00488453       0.01427268
C        2.49185424      11.15879785       2.20409976      -0.00669758      -0.01010754      -0.01269217
C        2.48452346      12.42736043       4.39776083       0.00022829       0.00873059      -0.00517410
C        2.49936883       7.44418130       0.02770893      -0.00489867      -0.00714320       0.00038090
C        2.48872327       8.70088339       2.19622031      -0.00504918      -0.01265472      -0.00655612
C        2.46914453       9.94240223       4.39562051       0.00795333      -0.00931987       0.02281746
C        2.50108863       4.97304557       0.02809648      -0.00350289       0.00322926       0.00114062
C        2.49498321       6.23013254       2.18458133      -0.00494876      -0.01880608      -0.00263289
C        2.47270391       7.48354933       4.34765955       0.00236203       0.01009564       0.02290358
C        2.50039681       2.50785629       0.03012003      -0.00040549       0.00042105      -0.00421027
C        2.49999855       3.75783416       2.19644374      -0.00275418       0.00237851       0.00700989
C        2.49032097       5.01739325       4.34655555      -0.00323599      -0.00136101       0.01131967
C        2.49956538       0.04963789       0.02447017      -0.00309338       0.00557645      -0.00598469
C        2.49718124       1.29883802       2.20594719       0.00001648       0.00030608      -0.00920521
C        2.49601427       2.55780423       4.39767337      -0.00247621      -0.01024104       0.00395137
C        2.49859689      16.09271433       0.70736188      -0.00125267      -0.00947586      -0.00888412
C        2.49348084       0.06842714       2.91972454       0.00415395      -0.00218942      -0.01652792
C        2.49094591       1.32900753       5.14681922       0.00536708      -0.01048735       0.00989253
C        2.49978354      13.60820482       0.70497815      -0.00415159       0.00255387       0.01907095
C        2.49495204      14.86808101       2.83730840      -0.00176254      -0.00176962       0.02345759
C        2.48986964      16.07929998       5.02377444       0.00564984       0.00242752      -0.01013164
C        2.49762848      11.14650821       0.72702658      -0.00583211       0.00539728       0.01697953
C        2.49193034      12.40211506       2.91940910      -0.00599313       0.00168256       0.00261332
C        2.48926971      13.70110588       5.02898004      -0.00483275      -0.01943809      -0.00964659
C        2.49662372       8.68400504       0.72296088      -0.00623538       0.00221498      -0.00449187
C        2.48293146       9.93488794       2.92728340       0.00124153      -0.00152754       0.00702384
C        2.46997664      11.18146018       5.14517982       0.00876519      -0.01120670      -0.00756718
C        2.49974651       6.21582666       0.71712953      -0.00550669      -0.00636570      -0.00122918
C        2.48579526       7.47208422       2.89966310      -0.00289460      -0.01087077      -0.02095280
C        2.46114057       8.69693126       5.10146748       0.00891686       0.00154903      -0.00736483
C        2.50098730       3.74667853       0.72333825      -0.00028003      -0.00022431      -0.00397477
C        2.49627213       5.00061732       2.89780143      -0.00631291      -0.00013746       0.01261796
C        2.47566486       6.25615564       5.05091334       0.00603512      -0.03116107      -0.01724564
C        2.49940677       1.28412831       0.72896658      -0.00209371       0.00247032      -0.00540259
C        2.49814613       2.53718902       2.92988297      -0.00217217      -0.00958981      -0.00258775
C        2.49478881       3.81779973       5.10105007      -0.01233208       0.00116352       0.00402014
C        2.49808401       5.63544880      13.75658412      -0.00480788      -0.00048009       0.00569707
C        2.49730190      14.22417357       8.87271418      -0.01025429       0.00335452       0.00572653
C        2.49521507       3.38985496       9.95795062      -0.00791793      -0.00792900       0.01694587
C        2.47777377       9.92741204      11.27716112       0.00030060      -0.01091391       0.00648132
C        2.50135155      16.39756538      12.59478656       0.00176698       0.01186226       0.00520645
C        2.50047857       1.33582216      13.79556953      -0.00057921       0.00015012       0.00744002
C        2.45984714      10.03057125       8.76746649       0.01005094      -0.00785804       0.00029963
C        2.49785315      16.35465081      10.11813691      -0.00037209      -0.01411838      -0.00027985
C        2.48884017       5.59622166      11.23269661      -0.00359629      -0.00029647       0.00676964
C        2.49533201      12.06999165      12.58789025      -0.00272242      -0.00052983      -0.00354533
C        2.50171979      14.27449775      13.80467499      -0.00073258       0.01040802       0.01125825
C        2.47763752       5.56009354       8.70807259       0.00475586       0.00634545       0.00543065
C        2.48754948      12.11483150      10.13051074      -0.00402366      -0.01088637      -0.01332255
C        2.49770759       1.27473092      11.34066846       0.00090739      -0.01355094       0.00552888
C        2.48515863       7.75235473      12.51105311       0.00306101      -0.01601636      -0.01761778
C        2.49301394       9.94206667      13.77261287       0.00297573      -0.01259328      -0.00488954
C        2.48921160       1.15075692       8.91402191       0.00774173      -0.00715686       0.00275013
C        2.46651596       7.76764068       9.94542155       0.00949157      -0.01402748       0.00689612
C        2.50295901      14.24204015      11.36591416      -0.00754975      -0.01480720       0.00813599
C        2.50016736       3.44630858      12.52312185      -0.00530103      -0.01003173       0.01533964
C        2.49517838       7.03505809      13.76025979      -0.00266176       0.00141796      -0.01104970
C        2.49686198      15.64199279       8.87173904      -0.00708283       0.00890876       0.00859882
C        2.48868213       4.84676876       9.94746305      -0.00516325      -0.00229619       0.01673729
C        2.48651764      11.36130241      11.34344582       0.00013063       0.00241960       0.00051222
C        2.50002179       0.58398865      12.58806037       0.00082589       0.00401635       0.01056540
C        2.50069756       2.73132266      13.77237887      -0.00147283      -0.00461666       0.01381997
C        2.47329968      11.44428973       8.91369605       0.00370761      -0.01750897      -0.00849846
C        2.49380523       0.50232582      10.13187468       0.00593631      -0.02814999       0.00177111
C        2.47954107       7.03871476      11.23328079       0.00418459       0.00187622      -0.01083074
C        2.50139977      13.52698326      12.59655925      -0.00371380      -0.00044630       0.01376862
C        2.50164623      15.66768684      13.80841210      -0.00117756       0.01012337       0.00699672
C        2.46352986       7.02970377       8.70368156       0.01091948       0.00329930      -0.01319306
C        2.49867768      13.53308605      10.12053635      -0.01054506      -0.01771403       0.02787152
C        2.49831737       2.70840858      11.27236366      -0.00419171      -0.01089133       0.01622239
C        2.48380551       9.20818811      12.52900140       0.00506630      -0.00848838       0.00184570
C        2.49593924      11.33752111      13.80144322      -0.00072723      -0.01141611      -0.00686324
C        2.49211518       2.56021497       8.76043467      -0.00162933       0.00012648       0.00811076
C        2.46565111       9.22421716       9.96505818       0.00374634       0.00482185      -0.00207934
C        2.50204425      15.66549145      11.36658562      -0.00084618      -0.00631126       0.00490998
C        2.49714168       4.90153379      12.51057314      -0.00730680      -0.00196807       0.00735804
H        2.50000000       0.76337987      14.75224777       0.00000000       0.00000000       0.00000000
H        2.50000000       3.29876826      14.75224777       0.00000000       0.00000000       0.00000000
H        2.50000000       5.07768518      14.75224777       0.00000000       0.00000000       0.00000000
H        2.50000000       7.61652803      14.75224777       0.00000000       0.00000000       0.00000000
H        2.50000000       9.39544521      14.75224777       0.00000000       0.00000000       0.00000000
H        2.50000000      11.93428703      14.75224777       0.00000000       0.00000000       0.00000000
H        2.50000000      13.71320473      14.75224777       0.00000000       0.00000000       0.00000000
H        2.50000000      16.25204655      14.75224777       0.00000000       0.00000000       0.00000000
H        2.50000000       0.00777197      26.58787924       0.00000000       0.00000000       0.00000000
H        2.50000000       2.47511239      26.58787924       0.00000000       0.00000000       0.00000000
H        2.50000000       4.94228012      26.58787924       0.00000000       0.00000000       0.00000000
H        2.50000000       7.40962053      26.58787924       0.00000000       0.00000000       0.00000000
H        2.50000000       9.87696095      26.58787924       0.00000000       0.00000000       0.00000000
H        2.50000000      12.34412945      26.58787924       0.00000000       0.00000000       0.00000000
H        2.50000000      14.81146987      26.58787924       0.00000000       0.00000000       0.00000000
C        2.48916852       1.43649246       6.59651059       0.00806194       0.00413358       0.00629961
C        2.49277215       3.89035220       6.57226307      -0.00668629      -0.00124246      -0.00760988
C        2.48686344       0.46439773       7.64281026       0.01237805      -0.00532055      -0.00048062
C        2.49298379       2.72375024       7.28758080      -0.00757135       0.00549534       0.01506135
C        2.49062053      16.34635684       7.60945887       0.00460847      -0.02449852      -0.00320334
C        2.49120692      15.62443608       6.40301285      -0.00371345       0.00839400      -0.01369922
C        2.48165996       5.11795044       7.27551057      -0.00121878      -0.00083822       0.00577572
C        2.45232683       9.83519582       7.29269312       0.01235636      -0.00718328       0.03953332
C        2.49074282      14.18883722       6.40703671      -0.00826453      -0.00233889       0.01000285
C        2.47540161      12.10685126       7.64059411       0.00311875      -0.00661626       0.01417047
C        2.48950247      13.49561506       7.61669248      -0.00090227       0.02197436       0.00166106
C        2.46899168       6.27024520       6.47041985       0.00622668       0.03154776       0.02131432
C        2.45650891       7.44030479       7.27179794       0.01120912      -0.03169930       0.01930895
C        2.45098128       8.65801554       6.57416583       0.01619579      -0.03626312      -0.03029263
C        2.46260853      11.10885953       6.59603381       0.01355460       0.03153360      -0.03118014
