8
Lattice="3.566999912261963 0.0 0.0 0.0 3.566999912261963 0.0 0.0 0.0 3.566999912261963" Properties=species:S:1:pos:R:3:forces:R:3 energy=-59.68259719 pbc="T T T"
C       -0.32153157       0.52093036       0.16738870       0.01703398       0.01613556       0.01145287
C        2.35483474       1.19982822       2.15714557      -0.01994327      -0.00901185       0.00724482
C       -0.05816785       2.66460950       0.13367812       0.01174700       0.00440835      -0.02857766
C        2.11060110       2.04648283       0.93713542      -0.02161762      -0.00600045      -0.01878368
C        1.13486325       3.13209841       0.88249732       0.01382364       0.02133305      -0.00947857
C        1.87276167       0.83764187      -0.00309665       0.01214987      -0.03135878       0.02378454
C        0.06871985       1.53791416       2.72392618      -0.01128699      -0.01009307      -0.00157549
C        0.13384626       0.59047932       1.56913878      -0.00190661       0.01458719       0.01593317
8
Lattice="3.566999912261963 0.0 0.0 0.0 3.566999912261963 0.0 0.0 0.0 3.566999912261963" Properties=species:S:1:pos:R:3:forces:R:3 energy=-62.58516586 pbc="T T T"
C        0.30427595       0.21457229       0.36186714       0.00054636       0.01713754      -0.00081349
C        2.36645762       1.68027660       3.29750438      -0.01410668      -0.03067948      -0.00488302
C        1.73463505       0.95055472       0.82642745      -0.02165857      -0.03513676      -0.00666130
C        0.93320213       1.94986199       1.41469527       0.03757107      -0.01468570       0.01120965
C       -0.40386603       0.67599914       2.70923637      -0.00259335       0.03961181       0.01660896
C        1.20979883       2.24624518       2.67888947      -0.02659288       0.01355099      -0.02712426
C        3.79343898       2.41136971       0.19349511       0.00257862      -0.00082315       0.02571554
C        2.88841012       0.38013610       1.44503353       0.02425543       0.01102476      -0.01405209
8
Lattice="3.566999912261963 0.0 0.0 0.0 3.566999912261963 0.0 0.0 0.0 3.566999912261963" Properties=species:S:1:pos:R:3:forces:R:3 energy=-72.70606912 pbc="T T T"
C       -0.79540247      -0.33697020       0.00625209       0.01525137      -0.02365805       0.02684994
C        1.88104083       2.33719387       0.89920602      -0.00591648       0.01187010      -0.01999466
C        0.98902995       1.44601967       3.57389135      -0.01113036       0.00275851       0.01067055
C        0.09687163       0.55346935       0.89851574       0.01567771       0.02156581      -0.00230021
C        3.66384290       2.33810387       2.68311366       0.01656923      -0.01088314      -0.04008504
C        0.98921621      -0.33772226       1.78980033      -0.01567610      -0.00340273       0.02709414
C        2.77361356       1.44560018       1.79031296      -0.03988992       0.01355085       0.01219564
C        1.87988218       0.55469081       2.68211747       0.02511454      -0.01180133      -0.01443036
8
Lattice="3.566999912261963 0.0 0.0 0.0 3.566999912261963 0.0 0.0 0.0 3.566999912261963" Properties=species:S:1:pos:R:3:forces:R:3 energy=-72.70614232 pbc="T T T"
C       -0.37298307      -0.70537137      -0.12474172      -0.00438779       0.01576035      -0.00131310
C        1.41075412       2.86192477       1.65893058       0.00338097       0.00382379      -0.01799184
C        0.51874317       0.18675247       0.76693060      -0.00001185      -0.01091017       0.00478677
C        1.40982885       1.07805506      -0.12490706       0.02568643       0.01898855       0.00516013
C        0.51869409       1.97062212       2.54990628       0.00704820      -0.01085042       0.02264846
C        3.19429687       1.07878851       1.65892342      -0.01289280      -0.01791900      -0.00996341
C        2.30277588       1.96964048       0.76679633      -0.02662871       0.01905415       0.00355843
C        2.30207092       0.18709611       2.55070347       0.00780556      -0.01794724      -0.00688543
8
Lattice="3.566999912261963 0.0 0.0 0.0 3.566999912261963 0.0 0.0 0.0 3.566999912261963" Properties=species:S:1:pos:R:3:forces:R:3 energy=-62.25833943 pbc="T T T"
C        0.23885350       0.45107500      -0.15110746       0.02360513       0.00113409       0.00663631
C        2.45633430       0.82566509       0.00819194       0.00524649      -0.00885159       0.01880760
C        1.38790138       0.44896424       2.60982493      -0.01126728       0.08527960       0.02984792
C       -0.32995263      -0.03788572       0.88604845      -0.05759203      -0.12961465      -0.10606907
C        3.07470992       2.39086256       1.66384035      -0.10355013       0.05884725       0.03156389
C        1.81739639       2.60648207       2.61284884       0.06349717       0.07539440       0.00951033
C        1.97732078       2.01467524       0.56563765      -0.02250523      -0.03893077       0.01118506
C        0.97789254       1.75145293       1.75059415       0.10256588      -0.04325834      -0.00148203
8
Lattice="3.566999912261963 0.0 0.0 0.0 3.566999912261963 0.0 0.0 0.0 3.566999912261963" Properties=species:S:1:pos:R:3:forces:R:3 energy=-72.70613932 pbc="T T T"
C        0.57242699       0.77130289      -0.10923716      -0.01315239      -0.02747046       0.00545904
C        3.24689609       1.66151219       0.78259151       0.00584037       0.02862729       0.00468592
C       -0.31954890       3.44585735       2.56626740      -0.00406057       0.00624420      -0.00123500
C        1.46354177      -0.12145272       0.78285517       0.00263697       0.01412821      -0.00732514
C        2.35585961       2.55457573       3.45809852      -0.01279679      -0.01761976      -0.00296996
C        2.35503418       0.77033013       1.67481606       0.01132749       0.00600343      -0.00970787
C        1.46381647       1.66287101       2.56617236      -0.00162846      -0.00669212      -0.00114006
C        0.57146513       2.55404850       1.67404457       0.01183338      -0.00322078       0.01223306
8
Lattice="3.566999912261963 0.0 0.0 0.0 3.566999912261963 0.0 0.0 0.0 3.566999912261963" Properties=species:S:1:pos:R:3:forces:R:3 energy=-64.75129835 pbc="T T T"
C       -0.27717303       0.52537563      -0.08064636      -0.02044844       0.00161359      -0.02634304
C        1.04358316       0.18081332       2.53982353      -0.00851949      -0.00399249      -0.01631378
C        1.38882408       1.12713526       1.21793391      -0.01808781      -0.00366751       0.00760907
C        1.86338688       1.00083847       3.35866620      -0.01014612      -0.01369272      -0.00055490
C        2.46549341       2.08012629       1.58485494      -0.01603248       0.00527395       0.02937304
C        1.98827512       2.42742600       2.88357485       0.02636386      -0.01238988       0.00586204
C        2.94155283       2.79304393       0.39369013       0.02941351       0.04014857       0.00293659
C        0.08925789       1.60291971       0.87192396       0.01745698      -0.01329350      -0.00256903
8
Lattice="3.566999912261963 0.0 0.0 0.0 3.566999912261963 0.0 0.0 0.0 3.566999912261963" Properties=species:S:1:pos:R:3:forces:R:3 energy=-61.62438339 pbc="T T T"
C       -0.24406307       0.59349319       0.20219775      -0.03525261      -0.00796224      -0.03354634
C        0.30877022       1.73269886       1.23443570       0.00627474       0.03196295      -0.00983564
C       -0.09893819       0.69555723       2.28431870      -0.00869373      -0.00645558       0.03158552
C        2.21574337      -0.10418445       1.83731704       0.02282100      -0.01340960      -0.00349712
C        1.89515806       0.39105259       0.43344269      -0.00514406       0.00941384       0.00793321
C        1.43178405       1.72946749       0.26801779       0.02339946      -0.00859520      -0.01695776
C       -0.07892794       3.09596872       1.33157878      -0.01010508       0.00209247       0.01967748
C        1.72931529       2.83184604       3.09613912       0.00670028      -0.00704664       0.00464065
8
Lattice="3.566999912261963 0.0 0.0 0.0 3.566999912261963 0.0 0.0 0.0 3.566999912261963" Properties=species:S:1:pos:R:3:forces:R:3 energy=-72.70617295 pbc="T T T"
C        0.00000000       0.00000000       0.00000000      -0.00000000       0.00000000      -0.00000000
C        0.00000000       1.78349996       1.78349996       0.00000000      -0.00000000       0.00000000
C        1.78349996       0.00000000       1.78349996      -0.00000000       0.00000000      -0.00000000
C        2.67524993       0.89174998       2.67524993       0.00000000      -0.00000000       0.00000000
C        0.89174998       2.67524993       2.67524993      -0.00000000      -0.00000000       0.00000000
C        1.78349996       1.78349996       0.00000000       0.00000000       0.00000000      -0.00000000
C        0.89174998       0.89174998       0.89174998       0.00000000      -0.00000000       0.00000000
C        2.67524993       2.67524993       0.89174998      -0.00000000       0.00000000      -0.00000000
8
Lattice="3.566999912261963 0.0 0.0 0.0 3.566999912261963 0.0 0.0 0.0 3.566999912261963" Properties=species:S:1:pos:R:3:forces:R:3 energy=-59.16569447 pbc="T T T"
C        0.30013350      -0.18031198      -0.09225391      -0.00791722       0.03101667       0.00772675
C        1.75775293       1.74822623       2.73247190      -0.00915796       0.01095584      -0.02370293
C        3.02001552       1.41981560       2.67767885       0.01754436       0.02397426       0.01816486
C        1.25885822       1.57953144       0.44086837      -0.00943303      -0.01114149       0.01882297
C        1.34384287       0.25207621       0.95911485       0.01399362      -0.01156889      -0.00495425
C       -0.05562679       2.08673503       0.30299176      -0.01264589       0.00293525       0.01100602
C        2.78421437      -0.31841149       1.02217451       0.01262286      -0.00155170      -0.01009654
C        0.17043934       0.27522689       2.05921144      -0.00500674      -0.04461994      -0.01696689
8
Lattice="3.566999912261963 0.0 0.0 0.0 3.566999912261963 0.0 0.0 0.0 3.566999912261963" Properties=species:S:1:pos:R:3:forces:R:3 energy=-72.70607362 pbc="T T T"
C        0.03700250      -0.07554526      -0.02708527       0.00636687      -0.01222630      -0.02748594
C        1.82164232       1.70764753      -0.02930224      -0.02601829      -0.00160157       0.03185926
C        1.81990607      -0.07592883       1.75548339       0.02038737      -0.00211691      -0.00402008
C        0.92821602       2.59966569       2.64774136       0.02228466      -0.01177883      -0.01641571
C        2.71194010       2.59934498       0.86406979       0.01340544      -0.00305757      -0.01440050
C        0.92960189       0.81641864       0.86322664      -0.01472713      -0.00398005       0.00816384
C        2.71304078       0.81480673       2.64641800      -0.01610783       0.03883836       0.01889044
C        0.03744489       1.70774225       1.75520759      -0.00559111      -0.00407714       0.00340869
8
Lattice="3.566999912261963 0.0 0.0 0.0 3.566999912261963 0.0 0.0 0.0 3.566999912261963" Properties=species:S:1:pos:R:3:forces:R:3 energy=-72.70612398 pbc="T T T"
C        0.02156417       0.20501340       0.03497917      -0.01440041       0.00001201       0.00968423
C        0.02161122       1.98857718       1.81848897      -0.02196031       0.00549911       0.02058667
C        0.91269645       1.09733595       2.71068053       0.01982929      -0.02452240      -0.01029159
C        1.80504374       0.20518292       1.81813516      -0.01735414       0.00074334       0.02883956
C        2.69573767       2.88030690       2.71073378       0.03224423       0.00771556      -0.01350830
C        2.69671397       1.09699049       0.92720211      -0.00102868      -0.00992633      -0.01663818
C        1.80523376       1.98834079       0.03498335      -0.02545926       0.01276515       0.01826303
C        0.91248869       2.88023216       0.92768107       0.02812927       0.00771356      -0.03693543
8
Lattice="3.566999912261963 0.0 0.0 0.0 3.566999912261963 0.0 0.0 0.0 3.566999912261963" Properties=species:S:1:pos:R:3:forces:R:3 energy=-63.06428924 pbc="T T T"
C       -0.31394436       0.22143643      -0.24662188       0.01354731      -0.03326313       0.02148842
C        2.72722032       2.87624958       2.47725082      -0.00744131       0.01397207      -0.00865653
C        1.44950745       1.47843856       3.96526760      -0.01205043       0.01202534       0.00763415
C        1.44958540       2.61144839       2.83256427       0.00516713      -0.00194052      -0.00715040
C        2.72823797       1.12763782       0.65942509       0.01572611      -0.02428258       0.02664801
C        0.96533198       1.61383949       1.83568317      -0.00602304       0.01459472      -0.02532639
C        0.96512235       0.48056741       2.96803868       0.00095220       0.02994203       0.00112144
C        3.25515118       1.97125664       1.57099726      -0.00987797      -0.01104793      -0.01575871
8
Lattice="3.566999912261963 0.0 0.0 0.0 3.566999912261963 0.0 0.0 0.0 3.566999912261963" Properties=species:S:1:pos:R:3:forces:R:3 energy=-64.75140514 pbc="T T T"
C       -0.55748893       0.66069380       0.17779664      -0.00085537      -0.00485643       0.00527187
C        1.34152970      -0.29269961       1.59977005       0.00722279      -0.01428971       0.00858514
C        0.39588953       1.02746680       1.25513768      -0.00356301       0.00431717      -0.01598363
C        2.29563593       1.85173261      -0.29900600      -0.00610694      -0.00043070      -0.01502224
C        0.52224838       2.45387366       0.78034857      -0.00137036       0.01213451       0.00130484
C        3.48660773       1.37448404       2.55377593      -0.00251119       0.00485310       0.01511393
C        2.66278949       2.92858637       0.65420083      -0.00261056       0.00925484      -0.00840758
C        0.99654602       2.32807061       2.92068694       0.00979464      -0.01098277       0.00913768
8
Lattice="3.566999912261963 0.0 0.0 0.0 3.566999912261963 0.0 0.0 0.0 3.566999912261963" Properties=species:S:1:pos:R:3:forces:R:3 energy=-72.70608494 pbc="T T T"
C       -0.08607380       0.09509496       0.18852501       0.02317716       0.02156840       0.01366117
C       -0.08576956       1.87872226       1.97175445       0.00501560       0.01204183       0.03285382
C        2.58988379       0.98720530      -0.70248919      -0.01920862      -0.00161980      -0.02162536
C        0.80627855       0.98809632       1.08068065      -0.01115270      -0.04640285      -0.00486736
C        0.80650950       2.77087513       2.86432688      -0.02133193      -0.00721089      -0.01719040
C        1.69770428       0.09508853       1.97217328       0.01147126       0.02342220       0.00889403
C        1.69704179       1.87880734       0.18885070       0.04262746       0.01100906      -0.00062006
C        2.59017712       2.77098577       1.08079847      -0.03059823      -0.01280796      -0.01110584
8
Lattice="3.566999912261963 0.0 0.0 0.0 3.566999912261963 0.0 0.0 0.0 3.566999912261963" Properties=species:S:1:pos:R:3:forces:R:3 energy=-62.76534633 pbc="T T T"
C        0.00635212       0.02126540      -0.29828525      -0.01284343       0.00593841       0.01327444
C        1.51978282       1.49196513       2.45390997      -0.00838408       0.00239985       0.00518978
C        3.58061784       2.20699893       2.89699686       0.02462190       0.00915921       0.01359495
C        2.54293409       1.24117069      -0.10898368      -0.00129085      -0.00654841      -0.01991304
C        0.58972854       0.56133800       1.97351568      -0.00254315       0.01424035      -0.00572937
C        0.84055174       3.10505101       0.96959823       0.00439269       0.01540752       0.01725025
C       -0.12588185       2.06718376       1.53014554      -0.00823586      -0.00145568      -0.00462944
C        2.05951194       2.07719735       1.15901874       0.00428278      -0.03914125      -0.01903757
8
Lattice="3.566999912261963 0.0 0.0 0.0 3.566999912261963 0.0 0.0 0.0 3.566999912261963" Properties=species:S:1:pos:R:3:forces:R:3 energy=-59.75356503 pbc="T T T"
C       -0.08172358       0.47565729      -0.01042116      -0.00807624      -0.01804175       0.01339861
C        0.48640515       1.72496607      -0.55917778       0.03370640       0.01596793      -0.00089690
C        2.51823196       2.46359762       2.66669239      -0.01485389       0.01381402       0.00088350
C        0.73488538      -0.05825535       1.22375984      -0.01579007      -0.01449733       0.00194658
C        1.70158914       1.92991590       0.33365820      -0.00332769       0.01456220      -0.00552729
C        2.27006495       0.68060615       0.88272629       0.03027459      -0.01826782      -0.00213407
C        3.08694027       0.14649797       2.11547349      -0.00933162      -0.00558873       0.00306593
C        1.30347255       2.25861135       1.77526204      -0.01260148       0.01205148      -0.01073637
8
Lattice="3.566999912261963 0.0 0.0 0.0 3.566999912261963 0.0 0.0 0.0 3.566999912261963" Properties=species:S:1:pos:R:3:forces:R:3 energy=-72.70608338 pbc="T T T"
C        0.14776920      -0.13754020      -0.15133206       0.01903986       0.00869555      -0.01219860
C        1.04025540       0.75459765       0.73892553      -0.00679047      -0.00230335       0.04388251
C        2.82424698       2.53786991       4.30790906      -0.02783249       0.00595228      -0.00955589
C        1.93215275       1.64747801      -0.15120959      -0.01151656      -0.04105933      -0.01567650
C        0.14823807       1.64539278       1.63254393       0.00652412       0.01466679      -0.02589169
C        1.03972435       2.53780119       2.52313291       0.00727411       0.00779091       0.02463365
C       -0.74383882       0.75418486       2.52370490       0.00106478       0.00916306       0.00948402
C        1.93124648       3.42990276       1.63211616       0.01223666      -0.00290591      -0.01467750
8
Lattice="3.566999912261963 0.0 0.0 0.0 3.566999912261963 0.0 0.0 0.0 3.566999912261963" Properties=species:S:1:pos:R:3:forces:R:3 energy=-72.70611354 pbc="T T T"
C        0.00447786       0.08226588      -0.04901252      -0.00371454       0.02988933       0.01796555
C        0.89657148       2.75851235       2.62598375      -0.01652430      -0.00185043       0.01325532
C        2.67947715       2.75884755       0.84379038      -0.00132063      -0.01211279      -0.02012886
C        1.78764669       1.86705689      -0.04857061       0.00483248      -0.00324849       0.00588363
C        0.00389925       1.86639380       1.73506419       0.01013558       0.01316656      -0.00168724
C        2.67964719       0.97492258       2.62772890      -0.00595571       0.00323075      -0.03470251
C        0.89554483       0.97526771       0.84280032       0.00972518      -0.00655362       0.00631802
C        1.78771149       0.08422650       1.73454847       0.00282195      -0.02252131       0.01309609
8
Lattice="3.566999912261963 0.0 0.0 0.0 3.566999912261963 0.0 0.0 0.0 3.566999912261963" Properties=species:S:1:pos:R:3:forces:R:3 energy=-72.70612392 pbc="T T T"
C        0.14888627       0.07295188      -0.10900639       0.00239511      -0.04647815      -0.01091843
C        1.03973902       2.74655921       2.56609520       0.02550742       0.02523531      -0.00771419
C        1.93252541       1.85564164      -0.10984478      -0.00990066      -0.01980876       0.00930788
C        1.93241774       0.07132587       1.67427159      -0.00682950       0.00168903      -0.00146124
C        2.82423074       0.96308940       2.56560179      -0.00810713       0.01752192       0.00395293
C        2.82413500       2.74648241       0.78213027      -0.00296745       0.02998784       0.00020528
C        3.71551749       1.85552130       1.67362049       0.01520465      -0.01776206       0.01611298
C        1.04129117       0.96339643       0.78265462      -0.01530243       0.00961486      -0.00948520
8
Lattice="3.566999912261963 0.0 0.0 0.0 3.566999912261963 0.0 0.0 0.0 3.566999912261963" Properties=species:S:1:pos:R:3:forces:R:3 energy=-59.61729411 pbc="T T T"
C       -0.07156176       0.17645331      -0.50817509       0.01618944      -0.00459664      -0.00709552
C        0.66673726       3.13657147       1.82491791      -0.02073097       0.00896674       0.02966771
C        0.71207729       0.66809492       0.66706169       0.01821918      -0.00712074      -0.01831058
C        1.67194358       2.29396032       2.23848473      -0.01803202      -0.02511526      -0.00086586
C        2.65675025       2.61049097       3.77913468      -0.00512407       0.01300116      -0.02531094
C        3.29540170       1.02611899       1.79752347       0.02387458       0.01815955       0.03846913
C        1.64824508       1.70602036      -0.05187351       0.00167164      -0.00832206       0.00446638
C        2.95505953       2.38145936       1.56236122      -0.01606779       0.00502724      -0.02102032
8
Lattice="3.566999912261963 0.0 0.0 0.0 3.566999912261963 0.0 0.0 0.0 3.566999912261963" Properties=species:S:1:pos:R:3:forces:R:3 energy=-63.08676693 pbc="T T T"
C        0.16918364      -0.08707620       0.29547845      -0.01005986      -0.01829288       0.00170924
C        2.65084973       0.44524582       2.96097945       0.00183832       0.00933039       0.00914702
C        3.15703783       1.44038190       1.97081942       0.00181724      -0.00553214      -0.00111656
C       -0.09372028       3.58161096       1.69321068       0.02267897       0.00629497       0.00103427
C        1.86985981       1.83249547       1.17796984       0.00363923       0.00345330      -0.00276479
C        1.36380508       0.83803404       3.75381479       0.00723626       0.00818305       0.00907247
C        0.78478929       2.36569102       2.07950931       0.01694596       0.01387247      -0.01196782
C        1.04910178       2.26452858      -0.08985384      -0.04409613      -0.01730917      -0.00511383
8
Lattice="3.566999912261963 0.0 0.0 0.0 3.566999912261963 0.0 0.0 0.0 3.566999912261963" Properties=species:S:1:pos:R:3:forces:R:3 energy=-72.70609926 pbc="T T T"
C       -0.08060903      -0.01143205      -0.01998157       0.00034773       0.00786132       0.00278852
C        2.59562429       0.88070763       2.65494944      -0.03106026      -0.00442316       0.00668300
C        0.81115459       2.66349223       2.65575011      -0.00365940       0.01360167      -0.01473822
C        2.59370447       2.66474202       0.87170206       0.02085898      -0.01862079       0.00003902
C        1.70233657      -0.01100389       1.76429621       0.01527186      -0.00353394      -0.01868948
C       -0.08090464       1.77304058       1.76261182       0.00851644      -0.01819831       0.02663897
C        0.81111595       0.88050703       0.87199109      -0.00289684       0.00091842      -0.00785914
C        1.70316413       1.77152380      -0.02010928      -0.00737852       0.02239478       0.00513733
8
Lattice="3.566999912261963 0.0 0.0 0.0 3.566999912261963 0.0 0.0 0.0 3.566999912261963" Properties=species:S:1:pos:R:3:forces:R:3 energy=-72.70610764 pbc="T T T"
C       -0.06683235      -0.04122860      -0.05273946       0.02072378      -0.02469003       0.01856515
C        0.82486683       0.84986531       0.83911501       0.00944114       0.01923861       0.01967218
C       -0.06634348       1.74247813       1.73182628       0.00807376      -0.01219329      -0.02454374
C        2.60885285       0.85041141       2.62307222       0.00425667       0.00273353      -0.00364734
C        2.60880471       2.63333739       0.83951924       0.00590742       0.02916770       0.00862290
C        1.71733399       1.74189548      -0.05188827      -0.01202256       0.00399100      -0.00354380
C        1.71728923       3.52659182       1.73133505      -0.00973647      -0.04611424      -0.01040755
C        0.82622341       2.63338016       2.62314285      -0.02664373       0.02786672      -0.00471779
8
Lattice="3.566999912261963 0.0 0.0 0.0 3.566999912261963 0.0 0.0 0.0 3.566999912261963" Properties=species:S:1:pos:R:3:forces:R:3 energy=-62.21917754 pbc="T T T"
C        0.02185928       0.12396241      -0.52169727      -0.00484934       0.00942196       0.00497389
C        3.00982603       2.66441380       2.05950393      -0.01622099       0.01348615       0.01335842
C        1.79846544       1.73328579       2.35209648      -0.02593164      -0.01363437      -0.00741905
C        0.28130453       1.54934736      -0.93427897      -0.02510413      -0.01490974       0.00764250
C        1.27480391       1.81567262       0.15233242       0.02010866      -0.02459539       0.03148317
C        2.74920766      -0.06244261       0.68951625       0.04030056       0.01377579       0.01902718
C        1.74846100       0.85730352       1.17117524      -0.00905063       0.00709279      -0.04539278
C        1.28134148       3.23048247       3.94191223       0.02074751       0.00936280      -0.02367332
8
Lattice="3.566999912261963 0.0 0.0 0.0 3.566999912261963 0.0 0.0 0.0 3.566999912261963" Properties=species:S:1:pos:R:3:forces:R:3 energy=-72.70610311 pbc="T T T"
C       -0.18749832      -0.07543202      -0.10537431      -0.01605641       0.02277374       0.00163649
C        1.59542025       3.49248958       1.67800790       0.00363511      -0.00326479      -0.00777904
C        1.59630038       1.70866343      -0.10519661      -0.02176947       0.01088166      -0.00320784
C        0.70414785       2.60077703       2.56967956      -0.00064342      -0.01734114       0.00738012
C        2.48693367       0.81675466       2.57003465       0.02158120      -0.00099543      -0.00218476
C        3.37936058       1.70816076       1.67911480      -0.01101915       0.02327527      -0.03773427
C        2.48744816       2.60070060       0.78658324       0.00682417      -0.01378685       0.00745542
C        0.70341578       0.81758899       0.78555015       0.01744798      -0.02154247       0.03443387
8
Lattice="3.566999912261963 0.0 0.0 0.0 3.566999912261963 0.0 0.0 0.0 3.566999912261963" Properties=species:S:1:pos:R:3:forces:R:3 energy=-72.70611682 pbc="T T T"
C        0.03949259      -0.12387567       0.18142758       0.01504632      -0.01729390       0.02149815
C        2.71575123       0.76727224       1.07482957      -0.01988943       0.00545450      -0.04042703
C        2.71481209       2.55060143       2.85766639       0.00510465       0.01666345      -0.01724034
C        1.82290544       3.44258154       1.96505602       0.02030511      -0.00311473       0.01718198
C        0.93182255       0.76737829       2.85707148      -0.01247614       0.00276082      -0.00104628
C        0.03999446       1.66015620       1.96536315       0.00164573      -0.03122853       0.00890548
C        1.82342043       1.65853057       3.74894564       0.00662944       0.01200696       0.00736856
C        0.93196237       2.55068444       1.07319899      -0.01636568       0.01475144       0.00375949
8
Lattice="3.566999912261963 0.0 0.0 0.0 3.566999912261963 0.0 0.0 0.0 3.566999912261963" Properties=species:S:1:pos:R:3:forces:R:3 energy=-72.70612194 pbc="T T T"
C        0.02156325       0.08610525       0.00619063       0.00763430       0.00249731      -0.00288651
C        1.80509201       0.08607635       1.78975999       0.00813984       0.00316399      -0.00783012
C        0.02181478       1.87079091       1.78976183       0.00072723      -0.04688946      -0.00769567
C        0.91316738       0.97781201       0.89813125       0.00974254       0.00077850      -0.00681610
C        2.69756050       0.97785166       2.68074668      -0.02080057      -0.00022495       0.02221461
C        0.91387945       2.76098400       2.68167976      -0.00958300       0.02361465      -0.00308115
C        2.69683701       2.76090556       0.89756568      -0.00115499       0.02585133       0.00855570
C        1.80520463       1.86935791       0.00617078       0.00529466      -0.00879137      -0.00246076
8
Lattice="3.566999912261963 0.0 0.0 0.0 3.566999912261963 0.0 0.0 0.0 3.566999912261963" Properties=species:S:1:pos:R:3:forces:R:3 energy=-72.70611576 pbc="T T T"
C       -0.17934677       0.08637706      -0.21707647       0.01700299       0.00327457       0.00827756
C        1.60443190       1.86958680      -0.21710231       0.00492957      -0.00080005       0.00658237
C        2.49639784       0.97769849       0.67533241      -0.01085888       0.01783062      -0.01781348
C        2.49650826       2.76154019       2.45928664      -0.02192722       0.00799095      -0.04303826
C        1.60394722       0.08667764       1.56638677       0.02244052      -0.01820892       0.01454440
C        3.38793899       1.87063606       1.56619868      -0.00321369      -0.02474142       0.01514522
C        0.71310257       2.76127258       0.67454857      -0.01280093       0.01825289       0.00346653
C        0.71241764       0.97830565       2.45784690       0.00442764      -0.00359865       0.01283565
8
Lattice="3.566999912261963 0.0 0.0 0.0 3.566999912261963 0.0 0.0 0.0 3.566999912261963" Properties=species:S:1:pos:R:3:forces:R:3 energy=-72.70611584 pbc="T T T"
C        0.05422672      -0.03019648       0.00311550       0.02160302       0.00910790      -0.00526548
C        2.73040553       0.86236264       2.67874200      -0.02901920      -0.02063114      -0.01573559
C        1.83893491       3.53670386       1.78687023      -0.03252116       0.01117490      -0.00194398
C        3.62098184       1.75304287       1.78545383       0.02810418       0.01673515       0.03622711
C        1.83743360       1.75340632       0.00275952       0.00882427       0.00704171       0.00461763
C        0.94558727       2.64549764       2.67780262       0.02281989      -0.01683617       0.00856580