8
Lattice="3.566999912261963 0.0 0.0 0.0 3.566999912261963 0.0 0.0 0.0 3.566999912261963" Properties=species:S:1:pos:R:3:forces:R:3 energy=-43.72595001 pbc="T T T"
C        0.00000000       0.00000000       0.00000000      -6.25225446      -2.40498775      -1.98694889
C        2.67524993       1.78349996       2.08074988      -3.15430888      -0.32265064      -2.51628207
C        0.39633333       2.17983326       0.29725000      -1.96768868       3.76721329      -1.91624991
C        1.84634421       2.22531814       0.83931361       3.70400546      -0.81160208       2.21576563
C        0.89174998       3.26974999       1.18900001       4.11034342      -1.20184493       2.68293276
C        1.18900001       0.89174998       0.29725000      10.29616281       0.44490404      -1.25775263
C        0.29725000       1.18900001       2.67524993      -1.60958141       1.74736451      -1.34454182
C        0.00000000       0.99083336       1.18900001      -5.12667825      -1.21839645       4.12307692
8
Lattice="3.566999912261963 0.0 0.0 0.0 3.566999912261963 0.0 0.0 0.0 3.566999912261963" Properties=species:S:1:pos:R:3:forces:R:3 energy=-46.46274681 pbc="T T T"
C        0.00000000       0.00000000       0.00000000       0.92149568      -0.84383187      -1.25413872
C        2.47708339       1.08991663       3.36883337      -5.79247712      -0.13730074      -0.04292531
C        1.78349996       0.79266665       1.08991663       1.63417078       1.05850685       1.57995217
C        0.79266665       1.88258333       1.48624993       4.65006728       1.08919377       0.40901824
C        0.19816666       1.18900001       2.67524993      -0.31277591      -1.09530394      -3.65572259
C        0.83726947       2.58234925       2.82064886       3.65535125      -0.02983456      -2.79728587
C        3.46791653       2.08074988       0.29725000      -0.37075481       6.64251461       2.94888268
C        3.26974999       0.89174998       1.18900001      -4.38507715      -6.68394413       2.81221941
8
Lattice="3.566999912261963 0.0 0.0 0.0 3.566999912261963 0.0 0.0 0.0 3.566999912261963" Properties=species:S:1:pos:R:3:forces:R:3 energy=-41.16700656 pbc="T T T"
C        0.00000000       0.00000000       0.00000000      -2.85008266      -4.81565788       3.67214466
C        1.98166671       2.57616656       0.99083336      -1.29103264      -1.69179578       0.60190494
C        0.99083336       1.08991663       3.36883337       1.43155940       3.08154659       2.99978831
C        0.00000000       1.18900001       0.99083336       0.09109526      -2.24696094       0.52733697
C        3.26974999       1.18900001       2.57616656       0.80543464       6.15410533      -1.60421316
C        0.86376671       0.44031099       2.00769695       2.98200204      -3.28965105      -6.33283264
C        2.17983326       1.18900001       1.58533331      -0.61771015       6.41942790      -4.83177515
C        2.19224478       0.32699110       2.80351273      -0.55126589      -3.61101417       4.96764606
8
Lattice="3.566999912261963 0.0 0.0 0.0 3.566999912261963 0.0 0.0 0.0 3.566999912261963" Properties=species:S:1:pos:R:3:forces:R:3 energy=-40.63726266 pbc="T T T"
C        0.00000000       0.00000000       0.00000000       5.21161184      -0.50870335      -5.21484785
C        0.25242881       2.49281651       1.20649077       0.73925520      -3.62156221       2.27234247
C        0.99083336       0.29725000       1.08991663      -3.96479814       3.00603685       0.38537734
C        2.17983326       0.69358333       0.19816666       0.45845775       1.36773921      -3.16004335
C        0.59450000       1.78349996       2.57616656      -1.14290794       2.57119055      -3.66345374
C        3.07158323       0.39633333       1.38716666       1.57438345       4.46769392       5.23392643
C        2.09555262       2.89647167       0.84441220      -1.76846430      -8.68635340       2.85136166
C        2.09944954       0.06755335       2.40022241      -1.10753786       1.40395844       1.29533704
8
Lattice="3.566999912261963 0.0 0.0 0.0 3.566999912261963 0.0 0.0 0.0 3.566999912261963" Properties=species:S:1:pos:R:3:forces:R:3 energy=-42.82125527 pbc="T T T"
C        0.00000000       0.00000000       0.00000000       0.99365027       0.56835235      -4.28957798
C        2.77433331       1.08991663       0.69358333       3.79429180       3.61459317      -5.66689789
C        1.78349996       0.39633333       2.57616656      -2.08307019      -0.56378007       5.01416487
C        0.07386403       0.24733893       1.42783869      -0.42966778       0.89076866      -0.79366148
C        2.17983326       3.36883337       1.28808328       2.52390397      -6.15268877       1.64820521
C        1.68003427       2.18479982       2.20984738      -0.70243780      -1.61488462       6.96462961
C        1.72172470       2.17323598       0.46227634       2.18423498      -0.45411420      -4.63750453
C        1.38716666       0.99083336       1.28808328      -6.28090525       3.71175347       1.76064220
8
Lattice="3.566999912261963 0.0 0.0 0.0 3.566999912261963 0.0 0.0 0.0 3.566999912261963" Properties=species:S:1:pos:R:3:forces:R:3 energy=-47.87069927 pbc="T T T"
C        0.00000000       0.00000000       0.00000000       3.56034959       0.80992307      -1.42381662
C        3.26974999       1.68441668       0.89174998      -0.81805148       1.41586210      -3.66103184
C        0.00000000       3.46791653       2.17983326      -0.19006379      -0.14331803      -2.11795750
C        1.58533331       0.29725000       0.00000000      -2.77137863       1.60077257       2.18469113
C        2.37648623       2.58178009       3.56370574      -1.03322372       1.70925941       1.99775367
C        2.47425058       0.80409459       1.72379403       2.10643849      -0.61899616      -1.39972023
C        0.71558796       1.78833725       3.25302547       4.16494101      -3.57505459       1.97139967
C        1.28808328       2.67524993       1.78349996      -5.01901146      -1.19844837       2.44868172
8
Lattice="3.566999912261963 0.0 0.0 0.0 3.566999912261963 0.0 0.0 0.0 3.566999912261963" Properties=species:S:1:pos:R:3:forces:R:3 energy=-51.45921631 pbc="T T T"
C        0.00000000       0.00000000       0.00000000      -1.88474601      -0.05990646      -0.20189161
C        0.94141753       0.23751732       2.47910722      -3.57860383       4.95628124       4.47284429
C        1.40585420       0.77010738       1.33594227       0.91409457      10.07897694      -7.77883154
C        1.88258333       0.99083336       3.46791653       0.00962570      -1.45171858       1.06357527
C        2.47708339       1.98166671       1.48624993       2.01875159       3.32539400       1.32954694
C        1.72467849       2.80338729       2.61343854       5.89986500     -11.39699874      -2.18187728
C        2.47708339       2.77433331       0.19816666       0.78015635      -2.19913444       2.18913992
C        0.59450000       2.17983326       1.18900001      -4.15914336      -3.25289395       1.10749401
8
Lattice="3.566999912261963 0.0 0.0 0.0 3.566999912261963 0.0 0.0 0.0 3.566999912261963" Properties=species:S:1:pos:R:3:forces:R:3 energy=-52.48168292 pbc="T T T"
C        0.00000000       0.00000000       0.00000000      -1.26698609       3.22418095      -0.13765786
C        0.89174998       1.98166671       1.78349996      -5.64297864      -0.97189832      -5.54523802
C        0.00349424       0.83912396       2.21866154      -2.92333127      -1.13059328      -1.91710024
C        2.00301443       0.21844234       1.83020288       6.46621462       1.09393446      -3.11947967
C        2.08074988       0.19816666       0.29725000      -1.72780277       1.70171332       1.99495368
C        0.89174998       1.68441668       0.19816666       4.74633445      -3.61506885       4.68671537
C        0.00000000       3.17066661       1.38716666      -0.80568310       1.53034690       1.80492903
C        1.28808328       2.87341669       2.97249986       1.15423279      -1.83261518       2.23287771
8
Lattice="3.566999912261963 0.0 0.0 0.0 3.566999912261963 0.0 0.0 0.0 3.566999912261963" Properties=species:S:1:pos:R:3:forces:R:3 energy=-72.70617295 pbc="T T T"
C        0.00000000       0.00000000       0.00000000       0.00000000       0.00000000       0.00000000
C        0.00000000       1.78349996       1.78349996       0.00000000      -0.00000000      -0.00000000
C        1.78349996       0.00000000       1.78349996       0.00000000      -0.00000000      -0.00000000
C        2.67524993       0.89174998       2.67524993      -0.00000000      -0.00000000      -0.00000000
C        0.89174998       2.67524993       2.67524993      -0.00000000       0.00000000       0.00000000
C        1.78349996       1.78349996       0.00000000       0.00000000       0.00000000      -0.00000000
C        0.89174998       0.89174998       0.89174998      -0.00000000      -0.00000000      -0.00000000
C        2.67524993       2.67524993       0.89174998      -0.00000000       0.00000000       0.00000000
8
Lattice="3.566999912261963 0.0 0.0 0.0 3.566999912261963 0.0 0.0 0.0 3.566999912261963" Properties=species:S:1:pos:R:3:forces:R:3 energy=-51.17479709 pbc="T T T"
C        0.00000000       0.00000000       0.00000000       1.75090615      -5.65527970       5.00201606
C        1.48675201       1.22597327       2.58263393       6.61556109       4.41762198       1.72595463
C        2.97249986       1.68441668       2.47708339      -2.66914547       0.02481429      -1.08386319
C        1.68441668       1.28808328       0.39633333      -3.71831225       2.26075243       0.32289347
C        1.26714983       0.04129328       0.95662434       1.52828765       1.46892490       1.40039820
C        0.10536940       2.18750464       0.12502980      -1.39072459      -1.92843813      -1.33419615
C        2.77433331       0.00000000       1.28808328      -1.38759520      -2.70257699      -3.50735813
C        0.28910888       0.43561678       2.27646971      -0.72897738       2.11418123      -2.52584489
8
Lattice="3.566999912261963 0.0 0.0 0.0 3.566999912261963 0.0 0.0 0.0 3.566999912261963" Properties=species:S:1:pos:R:3:forces:R:3 energy=-65.39483154 pbc="T T T"
C        0.00000000       0.00000000       0.00000000       3.57681347      -4.22179811       5.78237101
C        1.78349996       1.78349996       0.00000000      -0.54068359       0.41168104       0.50593468
C        1.78349996       0.00000000       1.78349996      -1.35782694      -3.39755589      -1.37108482
C        0.89174998       2.67524993       2.67524993       2.17097653      -3.55543966       0.64190005
C        2.67524993       2.67524993       0.89174998      -1.17716644      -3.55972777      -1.78054386
C        0.89174998       0.89174998       0.89174998       1.93203096       2.53999959      -1.58870994
C        2.97304477       0.28490197       2.45000945      -5.64243533      14.98426986      -1.50864709
C        0.00000000       1.78349996       1.78349996       1.03829134      -3.20142904      -0.68122003
8
Lattice="3.566999912261963 0.0 0.0 0.0 3.566999912261963 0.0 0.0 0.0 3.566999912261963" Properties=species:S:1:pos:R:3:forces:R:3 energy=-56.70820141 pbc="T T T"
C        0.00000000       0.00000000       0.00000000       1.14729208       3.83852173      -2.72757221
C        0.14138847       1.81895433       1.29065745      -1.13372998      -1.14090112       9.04168810
C        0.69358333       1.18900001       2.77433331       2.11322396      -2.15463453       1.52463252
C        1.68441668       0.29725000       1.88258333      -0.35150937       3.53382056      -0.74180257
C        3.26724460       2.50166533       2.75660293      -7.14995832      -1.72274964      -0.51069960
C        2.37800001       1.58533331       1.28808328       0.18318416      -7.65226003      -2.57219474
C        1.81470660       2.07636012       0.09887385       2.05156811      -1.78055915      -3.64213354
C        0.89174998       2.87341669       0.89174998       3.13992936       7.07876217      -0.37191794
8
Lattice="3.566999912261963 0.0 0.0 0.0 3.566999912261963 0.0 0.0 0.0 3.566999912261963" Properties=species:S:1:pos:R:3:forces:R:3 energy=-50.08776304 pbc="T T T"
C        0.00000000       0.00000000       0.00000000       1.83863879      -1.48101836       1.00904520
C        2.67524993       2.97249986       2.77433331       0.95767655      -2.18746779      -1.95297579
C        1.47251427       1.43668932       3.46071948       1.46831115       1.57765119       0.85447265
C        1.48624993       2.97249986       3.46791653      -5.21064968      -2.10720174       0.45319136
C        2.67524993       0.89174998       0.79266665       2.02196246       1.47887775       1.19618388
C        0.55728160       1.72943531       1.00913576      -1.69034907      -2.58232773       4.45316515
C        1.18900001       0.69358333       2.08074988       0.79723574       4.19879791       0.26633974
C        3.17066661       1.68441668       2.47708339      -0.18282595       1.10268876      -6.27942219
8
Lattice="3.566999912261963 0.0 0.0 0.0 3.566999912261963 0.0 0.0 0.0 3.566999912261963" Properties=species:S:1:pos:R:3:forces:R:3 energy=-49.29041613 pbc="T T T"
C        0.00000000       0.00000000       0.00000000      -3.76821045       8.66736927      -0.20887295
C        1.78349996       0.00000000       1.78349996      -3.45932412      -2.34766353      -1.24256471
C        0.11868217       0.95977787       1.21140046       4.73011946       0.98572062      -0.63491034
C        1.78349996       1.78349996       0.00000000       2.89240059       0.99490968      -0.74967752
C        0.52224250       2.55401389       0.70281027       4.43059504      -5.51198637       4.56174743
C        3.36883337       1.68441668       2.37800001      -0.80822268      -3.01402613       0.08913095
C        2.67524993       2.67524993       0.89174998      -5.59413096       0.75791134      -2.27143631
C        0.89174998       2.67524993       2.67524993       1.57677312      -0.53223489       0.45658345
8
Lattice="3.566999912261963 0.0 0.0 0.0 3.566999912261963 0.0 0.0 0.0 3.566999912261963" Properties=species:S:1:pos:R:3:forces:R:3 energy=-50.13262646 pbc="T T T"
C        0.00000000       0.00000000       0.00000000      -0.91229563       4.74652041       1.12556431
C        0.00000000       1.78349996       1.78349996       0.49763696       0.83031472       1.14570103
C        2.42891261       1.47458052       0.22011893       3.66212502      -6.17259462      -6.05166017
C        0.89174998       0.89174998       0.89174998      -3.63837243      -4.91823024       2.07659523
C        1.28808328       2.27891663       2.37800001      -3.02254637       3.04085594       4.89840601
C        1.43088943       0.12894892       2.04684415       0.00350813      -0.05104847       1.20641370
C        1.30086644       2.23192966       0.43265725      -1.19123589       1.12283284      -4.67898055
C        2.67524993       2.67524993       0.89174998       4.60118022       1.40134943       0.27796043
8
Lattice="3.566999912261963 0.0 0.0 0.0 3.566999912261963 0.0 0.0 0.0 3.566999912261963" Properties=species:S:1:pos:R:3:forces:R:3 energy=-46.77112353 pbc="T T T"
C        0.00000000       0.00000000       0.00000000      -1.85703203      -1.28389789      -4.09347211
C        1.58533331       1.08991663       2.27891663       1.95828311       1.10347738      -0.30731685
C        3.51336166       2.28735023       2.67574574      -1.43464700       7.26218445       1.10490853
C        2.97249986       1.38716666       0.00000000      -8.40613941      -2.02890888       3.64074948
C        0.00000000       0.89174998       2.27891663       6.72889213      -2.94793333      -5.91274817
C        0.58910678       3.27638001       1.16222361       3.29214380      -4.87918383       2.20491039
C        0.39633333       1.68441668       0.89174998       4.56906937       3.95362227       3.71678521
C        1.95696231       2.15519008       1.28836350      -4.85056997      -1.17936017      -0.35381647
8
Lattice="3.566999912261963 0.0 0.0 0.0 3.566999912261963 0.0 0.0 0.0 3.566999912261963" Properties=species:S:1:pos:R:3:forces:R:3 energy=-49.90656718 pbc="T T T"
C        0.00000000       0.00000000       0.00000000      -2.08571874       3.72448773       2.63162115
C        0.32803273       1.59584707       0.10497337       2.45178444      -1.05679748      -2.31046408
C        2.67524993       2.67524993       2.67524993      -0.83162948      -2.67636334       0.68719732
C        0.89174998       0.09908333       1.18900001       1.26607182      -3.65207342      -0.17721340
C        1.78349996       1.78349996       0.00000000      -1.20339433      -1.09209017       1.14774556
C        2.27891663       0.49541668       0.69358333      -1.59622008       2.92743677      -2.07949434
C        2.67524993       0.59450000       1.98166671       1.88645440       0.39033907       2.99198812
C        1.38716666       2.37800001       1.78349996       0.11265198       1.43506084      -2.89138035
8
Lattice="3.566999912261963 0.0 0.0 0.0 3.566999912261963 0.0 0.0 0.0 3.566999912261963" Properties=species:S:1:pos:R:3:forces:R:3 energy=-50.16524221 pbc="T T T"
C        0.00000000       0.00000000       0.00000000       2.71507259      -0.82052954       1.50496854
C        1.14567896       0.93328882       0.96270827      -6.09150582      -1.39937000       3.04068532
C        2.18491994       3.35236696       3.20764519       0.59409087      -1.98067592      -0.68490797
C        1.78349996       1.78349996       0.00000000      -1.44338356       0.20021329      -1.00042320
C        0.00000000       1.88258333       1.68441668       0.50981618       0.53823329       4.77668349
C        0.29725000       2.08074988       3.26974999       2.25613132      -0.17384331      -2.64329692
C        0.33227897       0.16469815       2.24685402      -0.57390560       1.51315657      -7.47520919
C        2.57616656       2.97249986       1.68441668       2.03368401       2.12281563       2.48149993
8
Lattice="3.566999912261963 0.0 0.0 0.0 3.566999912261963 0.0 0.0 0.0 3.566999912261963" Properties=species:S:1:pos:R:3:forces:R:3 energy=-71.43801875 pbc="T T T"
C        0.00000000       0.00000000       0.00000000       0.70076388       2.47587723      -3.24252257
C        0.91103825       2.66830142       2.49236047       1.54566233       5.19327494       6.23898144
C        2.67524993       2.77433331       0.89174998      -0.05090685      -0.03002641      -0.95774632
C        1.78349996       1.88258333       0.00000000       0.23633915      -0.23738379      -2.99453051
C        0.00000000       1.88258333       1.78349996      -1.48740403      -2.60017355      -2.85719291
C        2.67524993       0.99083336       2.67524993       0.36473335      -1.06517082      -0.13648895
C        0.89174998       0.99083336       0.79266665      -0.89602241      -0.81116168       1.64948525
C        1.79818789       0.17802514       1.67680589      -0.41316542      -2.92523592       2.30001456
8
Lattice="3.566999912261963 0.0 0.0 0.0 3.566999912261963 0.0 0.0 0.0 3.566999912261963" Properties=species:S:1:pos:R:3:forces:R:3 energy=-54.73314847 pbc="T T T"
C        0.00000000       0.00000000       0.00000000       2.52846036       3.95423952      -2.14030614
C        0.89174998       2.67524993       2.67524993       1.93755317       0.92014430       0.24118008
C        1.78349996       1.78349996       0.00000000       0.16161454      -0.69536451      -2.59165688
C        2.56832933       0.40772459       1.25878300      -5.50463059      -2.33759788       6.78891169
C        2.77433331       0.99083336       2.67524993      -0.93864938       0.71895474      -4.38433002
C        3.17066661       2.27891663       0.49541668      -5.09709841       1.06768689       2.99553000
C        3.38921329       2.32489541       1.88412943       0.80893759      -4.13600754      -0.44456310
C        0.88095036       0.81384827       0.83669383       6.10381271       0.50794448      -0.46476563
8
Lattice="3.566999912261963 0.0 0.0 0.0 3.566999912261963 0.0 0.0 0.0 3.566999912261963" Properties=species:S:1:pos:R:3:forces:R:3 energy=-48.11634479 pbc="T T T"
C        0.00000000       0.00000000       0.00000000      -2.64421002       0.95176535      -1.77868772
C        0.79266665       2.87341669       1.68441668      -3.61970664       3.38863709      -0.22198889
C        0.89174998       0.89174998       0.89174998       2.81688796      -2.78564304      -2.61892035
C        1.64465324       1.81191972       1.99560179       1.20073245       1.11652720       3.34496307
C        2.08074988       3.26974999       3.26974999       4.47322252      -2.03375728       1.54698620
C        3.36883337       0.99083336       1.68441668      -3.79230296       1.61118999       3.02511854
C        1.78349996       1.78349996       0.00000000      -1.57050599       0.13941889      -3.70216374
C        2.97249986       2.37800001       1.78349996       3.13588268      -2.38813819       0.40469289
8
Lattice="3.566999912261963 0.0 0.0 0.0 3.566999912261963 0.0 0.0 0.0 3.566999912261963" Properties=species:S:1:pos:R:3:forces:R:3 energy=-49.43282661 pbc="T T T"
C        0.00000000       0.00000000       0.00000000      -5.35208720      -4.40023014       1.23742116
C        2.37800001       0.69358333       2.67524993      -0.88654649      -5.46273472       4.21239219
C        3.36883337       1.28808328       1.88258333      -6.06449969       1.20386907      -2.77541664
C        0.00000000       3.46791653       1.38716666      -2.56592363       3.23319054       1.71076592
C        1.70443761       1.88755075       1.42624476       2.26144244       0.40106681      -0.96056316
C        1.02803507       0.84444888       3.53212787       8.91409900       0.32853634      -0.47767431
C        0.68810087       1.92316225       2.74038889       3.56942243       6.66017189      -3.09032898
C        1.78349996       2.57616656       0.19816666       0.12409313      -1.96386978       0.14340381
8
Lattice="3.566999912261963 0.0 0.0 0.0 3.566999912261963 0.0 0.0 0.0 3.566999912261963" Properties=species:S:1:pos:R:3:forces:R:3 energy=-68.28815799 pbc="T T T"
C        0.00000000       0.00000000       0.00000000      -3.50378235      -0.99720161      -0.99181883
C        2.67524993       0.89174998       2.67524993       0.71090100      -0.59437013      -0.88915603
C        0.79146599       2.51627375       2.63939457       1.59025978       6.86265897       2.34352711
C        2.22920379       2.74480373       0.76781550      14.16786980       3.26921740       4.69625259
C        1.68441668       0.00000000       1.78349996      -0.62040362      -0.07891975       1.39504835
C        0.00000000       1.78349996       1.78349996      -4.20502178      -3.08136134      -2.27064109
C        0.89174998       0.89174998       0.89174998      -3.25476940       0.01529161       0.01864168
C        1.78349996       1.78349996       0.00000000      -4.88505343      -5.39531516      -4.30185378
8
Lattice="3.566999912261963 0.0 0.0 0.0 3.566999912261963 0.0 0.0 0.0 3.566999912261963" Properties=species:S:1:pos:R:3:forces:R:3 energy=-66.51396333 pbc="T T T"
C        0.00000000       0.00000000       0.00000000      -4.05979336       2.91811183      -1.91002635
C        0.89174998       0.89174998       0.89174998      -0.58224334      -1.25931960      -1.95068919
C        0.00000000       1.78349996       1.78349996      -4.24581730      -3.30316055       0.13963586
C        2.67524993       0.89174998       2.67524993      -0.82521753       0.89814981       0.76467646
C        2.67524993       2.67524993       0.89174998      -1.31793246      -2.81429357      -2.21738853
C        1.78349996       1.78349996       0.00000000       0.50278137      -2.27398651      -2.69731491
C        1.43121004       3.14763141       1.46748297       6.93946748      11.22837808       3.44146142
C        0.71323533       2.76334989       2.57365011       3.58875514      -5.39387949       4.42964524
8
Lattice="3.566999912261963 0.0 0.0 0.0 3.566999912261963 0.0 0.0 0.0 3.566999912261963" Properties=species:S:1:pos:R:3:forces:R:3 energy=-43.7906014 pbc="T T T"
C        0.00000000       0.00000000       0.00000000       1.33136848       0.23182440      -4.26551124
C        2.97249986       2.37800001       1.78349996      -1.67064401       1.68222210       0.83412914
C        1.40638339       2.19065743       1.86105064       0.90764229      -4.87554497       2.04297667
C        0.25605295       1.39836800       0.01459311      -7.67228752       7.08339063     -11.38827625
C        1.78349996       1.78349996       0.00000000      -0.95557273       2.09239593      -4.49414724
C        2.77433331       0.00000000       1.08991663      -0.65538085      -2.67017104       2.52204520
C        0.89174998       0.89174998       0.89174998      10.05334863      -1.03804945      14.03267585
C        2.08074988       3.26974999       3.26974999      -1.33847430      -2.50606760       0.71610789
8
Lattice="3.566999912261963 0.0 0.0 0.0 3.566999912261963 0.0 0.0 0.0 3.566999912261963" Properties=species:S:1:pos:R:3:forces:R:3 energy=-49.91712978 pbc="T T T"
C        0.00000000       0.00000000       0.00000000       2.34221983      -1.70908299       0.46536147
C        2.27891663       2.97249986       1.78349996      -1.36043131       7.01388410       0.91797607
C        1.78349996       1.78349996       0.00000000      -2.02136419       0.78840465      -0.14526473
C        0.40489573       2.13176113       2.95454645       3.84193878       3.30083856       2.04520962
C        2.77433331       0.49541668       2.57616656      -3.16178616       2.57254649      -3.75342619
C        2.64733512       1.88977443       1.22721023       2.12711552      -7.51620621       0.88930742
C        1.98479760       3.50500099       0.42522620       1.05541113      -2.26959668       1.98647799
C        0.89174998       0.89174998       0.89174998      -2.82310359      -2.18078792      -2.40564166
8
Lattice="3.566999912261963 0.0 0.0 0.0 3.566999912261963 0.0 0.0 0.0 3.566999912261963" Properties=species:S:1:pos:R:3:forces:R:3 energy=-53.58974475 pbc="T T T"
C        0.00000000       0.00000000       0.00000000      -0.22165634      -0.69415418      -0.32245355
C        2.67524993       0.89174998       0.99083336      -0.30498511      -0.83581018      -5.84957959
C        2.67524993       2.67524993       2.77433331       7.41903175       0.45242008       1.09134831
C        1.76600462       3.49614537       1.89643422       0.14796412       3.50382845      -3.51438772
C        0.59450000       0.59450000       2.27891663      -0.62092445      -1.39366889       5.79778578
C        0.00000000       1.78349996       1.88258333      -1.45988762       0.87528301      -2.50673354
C        2.03743574       1.44984338       3.24194595      -0.12436450       0.27962795       5.37531551
C        1.27172094       2.38234044       2.65851202      -4.83517785      -2.18752625      -0.07129520
8
Lattice="3.566999912261963 0.0 0.0 0.0 3.566999912261963 0.0 0.0 0.0 3.566999912261963" Properties=species:S:1:pos:R:3:forces:R:3 energy=-62.67500151 pbc="T T T"
C        0.00000000       0.00000000       0.00000000      -0.34389826       3.40016656       0.31268785
C        1.78349996       0.00000000       1.78349996       1.04203925       3.31742391      -0.18615812
C        0.09908333       2.57616656       1.78349996      -2.08374637     -15.10762031      -1.88176643
C        0.89174998       0.89174998       0.89174998       0.41448175       0.81514980      -0.07551183
C        2.67524993       0.89174998       2.67524993      -0.11059419       0.02779796       0.13841889
C        0.99083336       2.67524993       2.77433331      -0.54134816       5.21636989      -0.15523851
C        2.65120249       2.57146724       0.84167347       0.66403390       7.75156241       1.54907835
C        1.78349996       1.78349996       0.00000000       0.95903208      -5.42085023       0.29848979
8
Lattice="3.566999912261963 0.0 0.0 0.0 3.566999912261963 0.0 0.0 0.0 3.566999912261963" Properties=species:S:1:pos:R:3:forces:R:3 energy=-54.38558993 pbc="T T T"
C        0.00000000       0.00000000       0.00000000       1.45150245       4.52791156      -0.75245608
C        1.78349996       1.78349996       0.00000000      -4.87148356      -2.13857621      -3.47372093
C        2.14337791       0.20050860       0.02040969       4.18130039       2.42114275       0.47632740
C        1.78349996       2.97249986       1.88258333       4.11819459       3.18512357       3.75584106
C        2.47708339       0.59450000       1.58533331      -0.17613114       0.70425360      -4.26422097
C        3.36883337       1.88258333       1.68441668      -2.60688574      -4.90115335       5.01122166
C        0.78368639       2.67041944       0.91926147      -2.28585866      -2.42895563      -0.81681339
C        0.49541668       1.28808328       2.87341669       0.18936168      -1.36974629       0.06382125
8
Lattice="3.566999912261963 0.0 0.0 0.0 3.566999912261963 0.0 0.0 0.0 3.566999912261963" Properties=species:S:1:pos:R:3:forces:R:3 energy=-61.3766647 pbc="T T T"
C        0.00000000       0.00000000       0.00000000       4.12489236      -0.12871882       2.96288436
C        2.97249986       0.99083336       2.77433331      -9.67277502      -2.37049673      -2.99640613
C        2.37800001       3.46791653       1.88258333     -12.64824984       3.85586271       1.11471194
C        3.41164936       1.66004735       1.56614017       9.77109241       1.09674785       6.64358614
C        1.78349996       1.78349996       0.00000000      -3.49900699      -0.19677785      -0.94703275
C        0.59141280       2.65728802       2.71803446       9.91196004      -3.53530727      -2.60956005