5
Lattice="3.93796462 0.0 0.0 0.0 3.93796462 0.0 0.0 0.0 3.93891698" Properties=species:S:1:pos:R:3:forces:R:3 energy=-40.12032428 stress="-0.0008424844130642804 -0.0 -0.0 -0.0 -0.0008424844130642804 0.0 -0.0 0.0 -0.000512511616596921" free_energy=-40.12032428 pbc="T T T"
Sr       0.00000000       0.00000000       0.00000000       0.00000000       0.00000000       0.00000000
Ti       1.96898231       1.96898231       1.96945849       0.00000000       0.00000000       0.00000000
O        0.00000000       1.96898231       1.96945849       0.00000000       0.00000000       0.00000000
O        1.96898231       0.00000000       1.96945849       0.00000000       0.00000000       0.00000000
O        1.96898231       1.96898231       0.00000000       0.00000000       0.00000000       0.00000000
5
Lattice="4.03084376 0.0 0.0 0.0 4.03084376 0.0 0.0 0.0 4.03254345" Properties=species:S:1:pos:R:3:forces:R:3 energy=-40.00295673 stress="-0.0002488092354018701 -0.0 -0.0 -0.0 -0.0002488092354018701 0.0 -0.0 0.0 0.0002890913610814811" free_energy=-40.00295673 pbc="T T T"
Ba       0.00000000       0.00000000       0.00000000       0.00000000       0.00000000       0.00000000
Ti       2.01542188       2.01542188       2.01627173       0.00000000       0.00000000       0.00000000
O        2.01542188       0.00000000       2.01627173       0.00000000       0.00000000       0.00000000
O        0.00000000       2.01542188       2.01627173       0.00000000       0.00000000       0.00000000
O        2.01542188       2.01542188       0.00000000       0.00000000       0.00000000       0.00000000
