6
Lattice="1.5950000286102295 -2.7626209259033203 0.0 1.5950000286102295 2.7626209259033203 0.0 0.0 0.0 13.100000381469727" Properties=species:S:1:pos:R:3:forces:R:3 energy=-39.78379004 pbc="T T T"
Mo       0.27178592      -0.21133147       0.90078690       0.00798431      -0.00754178      -0.00036702
Mo       1.92840066       0.69544276       4.90457840      -0.00049931       0.00321185       0.00106937
S        1.65004299       1.00704502       7.21733230      -0.00943541       0.00460526      -0.00717251
S        0.97507556      -0.27662002       8.53496243      -0.00549876       0.00440032      -0.00242487
S        1.86391129       0.71038885      12.49539296       0.00836387      -0.00815980       0.00099972
S        0.34082546      -0.22657966       3.39616474      -0.00091471       0.00348415       0.00789532
6
Lattice="1.5950000286102295 -2.7626209259033203 0.0 1.5950000286102295 2.7626209259033203 0.0 0.0 0.0 13.100000381469727" Properties=species:S:1:pos:R:3:forces:R:3 energy=-39.0890279 pbc="T T T"
Mo      -0.16792197      -0.15190724      -0.12335011      -0.00496329      -0.00066086      -0.01321604
Mo       1.42032667       0.76755160      10.78614325       0.00026726       0.00045250       0.01720126
S        1.41041210       2.60747109       7.34359546       0.01095518       0.00206266       0.01062818
S        1.41859273      -2.91623530       9.29338107       0.00139605       0.00015320      -0.01952093
S        3.02619251      -1.99213874       3.31945469      -0.00305263      -0.00144754      -0.00529010
S        1.42815228       0.76926221       1.37000057      -0.00460256      -0.00055996       0.01019762
6
Lattice="1.5950000286102295 -2.7626209259033203 0.0 1.5950000286102295 2.7626209259033203 0.0 0.0 0.0 13.100000381469727" Properties=species:S:1:pos:R:3:forces:R:3 energy=-39.08900088 pbc="T T T"
Mo       0.68792359       0.62270355      -0.93125265      -0.00018375      -0.00369076       0.01938792
Mo       2.28553447      -0.30839641       9.98117666       0.00170866       0.00894464      -0.01762356
S        0.68324276      -3.04949452       2.51181013       0.00593536      -0.01173693      -0.00355761
S        3.88137610       0.61094442       8.48745614       0.00143036       0.00744248      -0.00555935
S        0.69670680       0.60725107       6.53811894      -0.00830837       0.00305852       0.00670684
S       -0.90775235      -0.29597809       0.56269150      -0.00058226      -0.00401794       0.00064576
6
Lattice="1.5950000286102295 -2.7626209259033203 0.0 1.5950000286102295 2.7626209259033203 0.0 0.0 0.0 13.100000381469727" Properties=species:S:1:pos:R:3:forces:R:3 energy=-38.716360030000004 pbc="T T T"
Mo       0.14479816       0.05634972      -1.28497299       0.00037318      -0.00090999      -0.00801110
Mo       1.85167595      -0.91920613       0.94225789       0.00385170      -0.00106062       0.00687332
S        0.24665668      -1.83473758       2.45273070       0.00121421       0.00065533      -0.00324792
S        1.85749937       0.92267651       4.38681909      -0.01424236       0.00320365       0.00772206
S        1.74012382       0.97410072       8.37090687       0.00576226       0.00038652      -0.00927723
S        1.75039848       0.97154673      10.30468391       0.00304100      -0.00227488       0.00594089
6
Lattice="1.5950000286102295 -2.7626209259033203 0.0 1.5950000286102295 2.7626209259033203 0.0 0.0 0.0 13.100000381469727" Properties=species:S:1:pos:R:3:forces:R:3 energy=-39.08871436 pbc="T T T"
Mo      -0.86751654      -1.43620914      -0.30657606       0.00882950      -0.01186952      -0.01215341
Mo       2.33548238       0.39823386      10.60115257      -0.00236675       0.00907404       0.01305464
S        3.93340434       1.31833439       9.10696324      -0.00414012       0.00334040      -0.00005256
S       -0.86977001       0.40587156       1.18773374      -0.00114608       0.00144435      -0.00189218
S        3.94612368       1.31616662       7.15768997      -0.01728939       0.00146238       0.00765594
S       -0.88224609       0.40886926       3.13688594       0.01611285      -0.00345164      -0.00661243
6
Lattice="1.5950000286102295 -2.7626209259033203 0.0 1.5950000286102295 2.7626209259033203 0.0 0.0 0.0 13.100000381469727" Properties=species:S:1:pos:R:3:forces:R:3 energy=-41.35205491000001 pbc="T T T"
Mo      -0.12859386      -0.45646703      -0.07755027      -0.00155785      -0.01182736      -0.01558257
Mo       1.45778962      -1.37775936       9.00704285       0.00157693       0.00831981       0.04022921
S        1.46635375      -1.37574790      11.46666166      -0.00082672      -0.01345053       0.05152506
S        1.45705615       2.30946602       7.52791867       0.00630387      -0.02629172      -0.09409956
S        1.46669514      -1.37686036       1.47644852      -0.00202907      -0.00717042       0.02010198
S        1.48159105       0.11117880       4.53570074      -0.00346717       0.05042023      -0.00217412
6
Lattice="1.5950000286102295 -2.7626209259033203 0.0 1.5950000286102295 2.7626209259033203 0.0 0.0 0.0 13.100000381469727" Properties=species:S:1:pos:R:3:forces:R:3 energy=-39.54494261 pbc="T T T"
Mo       0.28158072      -0.32794869       0.66008682       0.00605543       0.00139176       0.00390222
Mo       1.81137695       0.35636307       4.64594534      -0.00139114      -0.00647040       0.00004679
S        1.87640685       0.60156099       2.23812144       0.00524979       0.00217803       0.00280025
S        1.87731751       0.59427334      12.20837644       0.00660363       0.00123170       0.00540496
S        1.97202145       0.77438555       6.76746601       0.00223682      -0.00118749      -0.00695941
S        1.67418333       1.77756304       8.34918719      -0.01875453       0.00285639      -0.00519481
6
Lattice="1.5950000286102295 -2.7626209259033203 0.0 1.5950000286102295 2.7626209259033203 0.0 0.0 0.0 13.100000381469727" Properties=species:S:1:pos:R:3:forces:R:3 energy=-39.781867389999995 pbc="T T T"
Mo      -1.25969888      -0.62506791      -0.12681493      -0.01059159       0.00989668      -0.00102797
Mo       1.88207925       1.28283519       8.97088597      -0.00493209      -0.01292444      -0.00252947
S        0.33741665      -1.54918723       1.37856975      -0.01045635       0.01116649      -0.00335111
S        2.21938741       1.19724396       6.65240681       0.01955089       0.00111545       0.00040831
S        1.46216481      -0.03711441       5.33521231       0.01033967       0.00677077       0.00012730
S        1.88016857      -0.55226071      10.47935900      -0.00391053      -0.01602495       0.00637294
6
Lattice="1.5950000286102295 -2.7626209259033203 0.0 1.5950000286102295 2.7626209259033203 0.0 0.0 0.0 13.100000381469727" Properties=species:S:1:pos:R:3:forces:R:3 energy=-40.63853752 pbc="T T T"
Mo      -0.39971851      -0.66484804      -0.66395488       0.00850700      -0.00015502       0.00034785
Mo       1.20670277       2.09782639       9.19110820      -0.01015487       0.00068226       0.00921484
S        1.20751770      -1.58544496       7.66293656       0.00058819       0.00453577      -0.01884259
S        2.81244956       1.18124300       5.72346490      -0.00822162      -0.00399946       0.01000373
S        1.20145927       0.25658947      10.80471293      -0.00496221      -0.00359161      -0.00220746
S        1.19446492      -1.58592482       0.87298377       0.01424351       0.00252806       0.00148363
6
Lattice="1.5950000286102295 -2.7626209259033203 0.0 1.5950000286102295 2.7626209259033203 0.0 0.0 0.0 13.100000381469727" Properties=species:S:1:pos:R:3:forces:R:3 energy=-41.01036514 pbc="T T T"
Mo       0.01724864       0.05776397      -0.78441589       0.00264195       0.00142175       0.00363809
Mo       1.61311574       0.97909529       2.87328987       0.00267561       0.00138982      -0.01821996
S        1.61193797      -0.86334339       1.04199745       0.00326176       0.00180167       0.00045228
S        1.61292438      -0.86282148       4.37153326       0.00355116       0.00190993       0.00445247
S        0.21185389       0.17128007       7.53329111      -0.01594649      -0.00854148      -0.00343884
S        1.61198200      -0.86328493      10.81430523       0.00381601       0.00201832       0.01311596
6
Lattice="1.5950000286102295 -2.7626209259033203 0.0 1.5950000286102295 2.7626209259033203 0.0 0.0 0.0 13.100000381469727" Properties=species:S:1:pos:R:3:forces:R:3 energy=-40.87907765 pbc="T T T"
Mo       0.05980607      -0.35882977      -0.75620020       0.00055423      -0.00645359      -0.00567376
Mo       1.65375180      -1.31304185       8.31909463      -0.00377258      -0.00004492       0.00140976
S        1.65177706       0.52550937       6.75399696      -0.00171478       0.00032252       0.00808141
S        1.65496467      -1.27799693       0.76792190      -0.00018145      -0.00351071      -0.00728302
S        1.64208823       0.51092532       4.81944598       0.01025578       0.01024858      -0.00052647
S        0.05903525      -0.39458990       9.89706614      -0.00514121      -0.00056188       0.00399209
6
Lattice="1.5950000286102295 -2.7626209259033203 0.0 1.5950000286102295 2.7626209259033203 0.0 0.0 0.0 13.100000381469727" Properties=species:S:1:pos:R:3:forces:R:3 energy=-44.25198005 pbc="T T T"
Mo       0.18430865       0.06350392       0.07258670      -0.00819956      -0.00849612       0.00759004
Mo       1.56244579      -0.05279459       6.56940082       0.00440087       0.01249636      -0.01194377
S        1.77793958       0.98605681       1.62355923      -0.00336097      -0.00638349       0.00539273
S        1.56321506       3.63063139       5.01675283       0.00522454       0.00415213       0.00094497
S        1.77994217       0.98332526      11.62180305      -0.00335553      -0.00648706       0.00623773
S        1.56185333       1.78982530       8.12154643       0.00529065       0.00471817      -0.00822170
6
Lattice="1.5950000286102295 -2.7626209259033203 0.0 1.5950000286102295 2.7626209259033203 0.0 0.0 0.0 13.100000381469727" Properties=species:S:1:pos:R:3:forces:R:3 energy=-41.12895274 pbc="T T T"
Mo      -0.13127936       0.17294593       1.34925322       0.00678916       0.00063644       0.00259970
Mo       1.53608306       1.24347081       5.15271663      -0.00768084       0.00013457      -0.01622334
S        3.12931476       0.31049310       6.59850808      -0.00719392       0.00086682       0.01103082
S       -0.05909724       0.29453275       8.53451911      -0.00950359       0.00072893       0.01177167
S        1.45939913      -0.77009316       3.01657199       0.00704018      -0.00103221      -0.00574335
S        1.46275447      -0.74747261      12.92570819       0.01054900      -0.00133455      -0.00343549
6
Lattice="1.5950000286102295 -2.7626209259033203 0.0 1.5950000286102295 2.7626209259033203 0.0 0.0 0.0 13.100000381469727" Properties=species:S:1:pos:R:3:forces:R:3 energy=-43.541616669999996 pbc="T T T"
Mo       0.35050566      -0.21893464       0.35983285       0.00526089       0.00251778       0.01413864
Mo       2.10730628      -1.05576692       7.05936271      -0.00510157      -0.00258325      -0.01387305
S        1.94561269       0.70208512       1.91299831       0.00355083       0.00070710       0.01661490
S        0.51242463      -0.13469873       5.50589618      -0.00297898      -0.00234463      -0.01447730
S        2.10699910       0.78571218       8.61204597      -0.00728720      -0.00270682      -0.01738325
S        1.94546986      -1.13997358      11.90710643       0.00655603       0.00440981       0.01498006
6
Lattice="1.5950000286102295 -2.7626209259033203 0.0 1.5950000286102295 2.7626209259033203 0.0 0.0 0.0 13.100000381469727" Properties=species:S:1:pos:R:3:forces:R:3 energy=-40.740365749999995 pbc="T T T"
Mo      -0.35147204      -0.08526284      -0.89865967      -0.00407293       0.00300106       0.00027656
Mo       1.21091747      -0.98806443       8.20359971      -0.00232865       0.00172499       0.00698216
S        1.21443645       0.85139441       6.63913088      -0.00202374       0.00159065      -0.00464693
S        2.80743042      -0.06829091       9.78877158      -0.00225229       0.00170881      -0.00281016
S        2.60776834       0.06518511       3.67501906       0.01530285      -0.01133192       0.00029858
S        1.24250690      -1.00543917       0.58568011      -0.00462524       0.00330640      -0.00010020
6
Lattice="1.5950000286102295 -2.7626209259033203 0.0 1.5950000286102295 2.7626209259033203 0.0 0.0 0.0 13.100000381469727" Properties=species:S:1:pos:R:3:forces:R:3 energy=-41.44839759 pbc="T T T"
Mo       0.05347620       0.26100745      -0.59312908       0.00415530      -0.00346091       0.01052234
Mo       1.65750185       1.17385430       8.50402610       0.00256747      -0.00177848      -0.01911420
S        1.65691198      -0.66768504       7.03761430       0.00231085      -0.00113231       0.06645068
S        1.64812494       1.18216398       0.96463073       0.00448683      -0.00368213      -0.01648975
S        0.17823354       0.16977096       4.05951055      -0.01813161       0.01385471      -0.00051601
S        1.64839946       1.18195390      10.95782333       0.00461116      -0.00380089      -0.04085307
6
Lattice="1.5950000286102295 -2.7626209259033203 0.0 1.5950000286102295 2.7626209259033203 0.0 0.0 0.0 13.100000381469727" Properties=species:S:1:pos:R:3:forces:R:3 energy=-41.38836254 pbc="T T T"
Mo      -0.22639040      -0.18238485      -0.24419984      -0.00271276      -0.00601478      -0.01317839
Mo       2.96430644      -0.18250570       9.66800334       0.00064154       0.00330431       0.00667260
S        1.25547707       0.61505665       4.68774591       0.00816869       0.01071833       0.01083789
S        1.36990611      -1.10262300       8.13429899      -0.00645524      -0.00866280       0.00770398
S        1.36857492      -1.10332806       1.28906820      -0.00088599      -0.00083335       0.00166747
S        1.36883039      -1.10346785      11.26252940       0.00124376       0.00148829      -0.01370354
6
Lattice="1.5950000286102295 -2.7626209259033203 0.0 1.5950000286102295 2.7626209259033203 0.0 0.0 0.0 13.100000381469727" Properties=species:S:1:pos:R:3:forces:R:3 energy=-45.00615646 pbc="T T T"
Mo      -0.01490150      -0.12338919      -0.87190261       0.00337352      -0.00512364      -0.01217448
Mo       1.57450371       0.62663392       5.58218157       0.01118344       0.00985858       0.01134863
S        1.57998649      -1.04481495       0.68011430       0.00059516      -0.00266330      -0.01107323
S        1.58050367      -1.04427884      10.67546561      -0.00413959      -0.00456718      -0.01146211
S       -0.01940009      -0.29456582       7.13480966      -0.01168801       0.00546758       0.01164990
S        3.16937257      -0.29341335       4.03026016       0.00067549      -0.00297203       0.01171129
6
Lattice="1.5950000286102295 -2.7626209259033203 0.0 1.5950000286102295 2.7626209259033203 0.0 0.0 0.0 13.100000381469727" Properties=species:S:1:pos:R:3:forces:R:3 energy=-41.011982659999994 pbc="T T T"
Mo       0.05246023       0.09986130      -0.00209324       0.00259693       0.00277361       0.00208858
Mo       1.64752654       1.02009800       3.65182035       0.00170393       0.00288904      -0.00188411
S        1.73208241       1.17229930       8.42235718      -0.01138820      -0.01439660       0.00539215
S        1.64742276      -0.82188036       5.15287921       0.00187772       0.00336239      -0.01004129
S        1.64699942      -0.82185043       1.82695400       0.00215181       0.00224528      -0.00152736
S        1.64725879      -0.82119164      11.59808426       0.00305782       0.00312627       0.00597204
6
Lattice="1.5950000286102295 -2.7626209259033203 0.0 1.5950000286102295 2.7626209259033203 0.0 0.0 0.0 13.100000381469727" Properties=species:S:1:pos:R:3:forces:R:3 energy=-40.30773513 pbc="T T T"
Mo       0.62989032      -0.58783103      -0.37747294       0.00856539       0.01284872       0.00159940
Mo       0.89206584      -2.54049547       1.93738215       0.00613028      -0.00636918      -0.00678419
S        0.88153157      -0.68718735       3.45866355       0.00575963      -0.00772681      -0.00621729
S       -0.10552031       0.59949676       6.45474318      -0.01567883      -0.00289033       0.00825595
S        2.24204602       0.32085690      11.18744772       0.00890530       0.01379755      -0.00314783
S        0.70242738      -0.77503548       7.74643755      -0.01368177      -0.00965995       0.00629395
6
Lattice="1.5950000286102295 -2.7626209259033203 0.0 1.5950000286102295 2.7626209259033203 0.0 0.0 0.0 13.100000381469727" Properties=species:S:1:pos:R:3:forces:R:3 energy=-41.58876654 pbc="T T T"
Mo      -0.38144512       0.50143148      -1.35045618      -0.00992868       0.00773648      -0.00285604
Mo       1.17969267      -0.39201450       7.76326447       0.01131762      -0.00524147       0.00306741
S        1.16837868       1.46506246       4.35490944       0.00741387      -0.01250438       0.00587751
S        2.77204784      -1.30998876       6.29485548       0.01032650      -0.00426926      -0.00977939
S        1.21187366      -0.41771949      10.18474454      -0.00565261       0.00162821       0.00001652
S        1.21493563      -0.42078462       0.19774638      -0.01347669       0.01265042       0.00367400
6
Lattice="1.5950000286102295 -2.7626209259033203 0.0 1.5950000286102295 2.7626209259033203 0.0 0.0 0.0 13.100000381469727" Properties=species:S:1:pos:R:3:forces:R:3 energy=-40.31412106 pbc="T T T"
Mo       0.05820251       0.03494176      -0.30367849      -0.00525879      -0.00117224       0.00555522
Mo       1.89551489      -0.74492086      10.48206497       0.00776239       0.00363456      -0.01567633
S        0.28130451       0.16485122       8.94785344       0.00628044       0.00418339      -0.00069807
S        1.43655720      -1.00397853       5.55248111      -0.00546549      -0.00399825       0.00885652
S        0.62683239       0.37032108       4.25876082       0.00035103      -0.00068255       0.00963170
S        1.67080751      -0.87568213       1.21942196      -0.00366958      -0.00196492      -0.00766904
6
Lattice="1.5950000286102295 -2.7626209259033203 0.0 1.5950000286102295 2.7626209259033203 0.0 0.0 0.0 13.100000381469727" Properties=species:S:1:pos:R:3:forces:R:3 energy=-41.35135333 pbc="T T T"
Mo      -0.26651089      -0.01005646      -0.21093774       0.00026467      -0.00635155      -0.00129471
Mo       1.33293430      -0.95036391       8.86862727      -0.01577404      -0.00156419      -0.00278147
S        1.17548230       0.74873246       4.39421482       0.02054068       0.02042205      -0.00249610
S        1.32881424      -0.93038081      11.33253469       0.00026047      -0.00782780      -0.04475199
S        1.32864438      -0.93008031       1.34219907      -0.00148210      -0.00781262      -0.01254509
S        2.92930870      -0.02916474       7.38817446      -0.00380968       0.00313411       0.06386936
6
Lattice="1.5950000286102295 -2.7626209259033203 0.0 1.5950000286102295 2.7626209259033203 0.0 0.0 0.0 13.100000381469727" Properties=species:S:1:pos:R:3:forces:R:3 energy=-40.16958925 pbc="T T T"
Mo      -0.11869510       0.08520528       0.48014570      -0.00124605      -0.01426822       0.01086217
Mo       2.27074309      -1.29909007       2.56325590       0.00675540       0.00805099      -0.00887380
S        1.52940842       0.97579510      12.05642779      -0.00415734      -0.00446897       0.01532580
S        2.85762900       0.19032379       9.07721840      -0.00629706       0.00729125      -0.00957718
S        0.72811440      -0.40904569       4.09895038       0.00195375       0.00531448      -0.00943020
S        1.61305164       0.91006890       7.83723253       0.00299131      -0.00191954       0.00169321
6
Lattice="1.5950000286102295 -2.7626209259033203 0.0 1.5950000286102295 2.7626209259033203 0.0 0.0 0.0 13.100000381469727" Properties=species:S:1:pos:R:3:forces:R:3 energy=-41.125676 pbc="T T T"
Mo      -0.53297114       0.08337903       0.61726158      -0.00675775       0.00377729      -0.00663073
Mo       1.85574431      -1.30077024       2.67153277      -0.00716608       0.00390089       0.00462560
S        1.37740397      -0.24952821       7.23598505       0.01669058      -0.00934775       0.08494181
S        1.38011425      -0.24711690       9.16362241       0.01657921      -0.00930232      -0.07879963
S        1.90579033       2.35075968       4.19523927      -0.00983004       0.00591919       0.00069248
S        1.11585997       0.97622336      12.19324123      -0.00951591       0.00505270      -0.00482953
6
Lattice="1.5950000286102295 -2.7626209259033203 0.0 1.5950000286102295 2.7626209259033203 0.0 0.0 0.0 13.100000381469727" Properties=species:S:1:pos:R:3:forces:R:3 energy=-41.4540892 pbc="T T T"
Mo      -0.36182187       0.73268181       0.06189845      -0.00478455       0.00169391       0.04866710
Mo       1.22473900      -0.18466970       4.06584888      -0.00490476       0.00140984      -0.04582851
S        2.81970238      -1.10557717       5.53096257       0.00073426       0.00019690       0.06690928
S        1.23327645      -0.18821573       1.61241732      -0.00334661       0.00102901      -0.04536573
S        2.73071593       0.77116539       8.50691567       0.01529675      -0.00514734       0.00132649
S        1.23342769      -0.18828651      11.60520100      -0.00299509       0.00081768      -0.02570862
6
Lattice="1.5950000286102295 -2.7626209259033203 0.0 1.5950000286102295 2.7626209259033203 0.0 0.0 0.0 13.100000381469727" Properties=species:S:1:pos:R:3:forces:R:3 energy=-40.47908203 pbc="T T T"
Mo       0.05503197      -0.37358427       0.25700050       0.00062141       0.00946727      -0.01132719
Mo       1.65065435      -0.37420037       2.33190213      -0.00063985      -0.00750164       0.00123514
S        1.65274302      -0.90152410       7.35385007       0.00009900       0.00211959      -0.00681682
S        1.65280943       1.86364628       8.63902394      -0.00056376       0.00265380      -0.01460377
S        1.64978766      -1.35852565      11.82550426       0.00236548      -0.00194849       0.01638718
S        1.65088222       1.40518417       3.86534183      -0.00188229      -0.00479053       0.01512545
6
Lattice="1.5950000286102295 -2.7626209259033203 0.0 1.5950000286102295 2.7626209259033203 0.0 0.0 0.0 13.100000381469727" Properties=species:S:1:pos:R:3:forces:R:3 energy=-43.52622056 pbc="T T T"
Mo      -0.17458056       0.62041217      -0.28144565      -0.00440514       0.01845341      -0.00022676
Mo       0.19356500      -0.52570255       6.26826293       0.00440109      -0.01843827       0.00011550
S        1.42072830      -0.29984647       1.27043414      -0.00423196       0.01836082       0.00061305
S        1.42002179       1.54115456      11.26666334      -0.00444325       0.01848720      -0.00066300
S        1.78892199      -1.44651099       4.71639686       0.00431637      -0.01852718      -0.00075739
S        1.78829494       0.39459004       7.82013155       0.00436289      -0.01833598       0.00091859
6
Lattice="1.5950000286102295 -2.7626209259033203 0.0 1.5950000286102295 2.7626209259033203 0.0 0.0 0.0 13.100000381469727" Properties=species:S:1:pos:R:3:forces:R:3 energy=-44.99759129 pbc="T T T"
Mo       0.07142220      -0.03514964      -0.87241690      -0.00125648       0.00282385      -0.00632849
Mo       0.77538152      -1.47130263       5.65574454       0.00012167       0.00090425       0.00772332
S        1.66691847      -0.95565315       0.67931017       0.00204981      -0.00013720      -0.00482292
S        0.77578758       0.37064052       7.20777645      -0.00235840      -0.00073093      -0.00211056
S        0.77592578       0.37086173       4.10414692      -0.00319284      -0.00241641       0.00318328
S        1.66659579      -0.95568586      10.67544009       0.00463624      -0.00044356       0.00235538
6
Lattice="1.5950000286102295 -2.7626209259033203 0.0 1.5950000286102295 2.7626209259033203 0.0 0.0 0.0 13.100000381469727" Properties=species:S:1:pos:R:3:forces:R:3 energy=-40.45994056000001 pbc="T T T"
Mo      -0.08389092      -0.00409475      -0.55935598      -0.00097122       0.00280887       0.00748158
Mo       0.70196449      -1.39072369       1.51337073      -0.00238048      -0.00057420      -0.01032266
S        1.56683104      -0.89314141      11.00695796      -0.00888980      -0.00089888      -0.00609247
S        1.67501009       1.76307851       6.13086873       0.00473512      -0.00224453       0.00807941
S        0.75249827       0.48464582       3.04210067       0.00235989       0.00114482      -0.00609420
S        0.87039963       0.38556313       7.41605970       0.00514649      -0.00023608       0.00694834
6
Lattice="1.5950000286102295 -2.7626209259033203 0.0 1.5950000286102295 2.7626209259033203 0.0 0.0 0.0 13.100000381469727" Properties=species:S:1:pos:R:3:forces:R:3 energy=-41.3868527 pbc="T T T"
Mo       0.02609955      -0.08010118       0.28097510       0.00119052      -0.00240187      -0.01369729
Mo       0.02638124      -0.08007232       3.46839320       0.00057045      -0.00290301      -0.01137094
S        1.62117774       0.84066986      11.84703930       0.00010681      -0.00113237       0.00303694
S        1.62151434       0.84075243       5.00164554      -0.00021601      -0.00206629       0.00446433
S        1.66383278      -1.20291287       8.39340788      -0.00480089       0.01563684       0.01125006
S        1.62101008       0.84127471       1.87444222       0.00314913      -0.00713330       0.00631689
6
Lattice="1.5950000286102295 -2.7626209259033203 0.0 1.5950000286102295 2.7626209259033203 0.0 0.0 0.0 13.100000381469727" Properties=species:S:1:pos:R:3:forces:R:3 energy=-40.88714456 pbc="T T T"
Mo      -0.16732731      -0.00896925       0.79647035      -0.00139722       0.01648923      -0.00282619
Mo       0.60882213      -1.41251744       2.89877212       0.00252340       0.01839737       0.00079250
S        1.69853001      -1.79890629       7.40643019      -0.00109504      -0.03472702       0.01469805
S        1.49372562      -0.88935684      12.35710172      -0.00394163       0.01459709      -0.00192852
S        2.13711632      -0.52525048       4.43747377       0.00463702       0.01914200       0.00025603
S        3.29138464       0.96760205       9.32027344      -0.00072654      -0.03389868      -0.01099186
6
Lattice="1.5950000286102295 -2.7626209259033203 0.0 1.5950000286102295 2.7626209259033203 0.0 0.0 0.0 13.100000381469727" Properties=species:S:1:pos:R:3:forces:R:3 energy=-44.99360879 pbc="T T T"
Mo       0.04229386       0.30174373       0.06419486       0.00020327       0.01927615       0.00062816
Mo       1.58808076       1.76279342       6.61853107      -0.00020150      -0.01931393      -0.00157659
S        1.58810622      -0.07971214       5.06700844      -0.00019455      -0.01894007       0.00050765
S        1.63732694       1.22291138      11.61255732       0.00019417       0.01926842       0.00037264
S        1.63733751       1.22285733       1.61579736       0.00019812       0.01925092       0.00079710
S        1.58811462      -0.07973855       8.16989278      -0.00019951      -0.01954150      -0.00072896
6
Lattice="1.5950000286102295 -2.7626209259033203 0.0 1.5950000286102295 2.7626209259033203 0.0 0.0 0.0 13.100000381469727" Properties=species:S:1:pos:R:3:forces:R:3 energy=-41.38903138 pbc="T T T"
Mo       0.10319183      -0.13927343      -0.31061413       0.00085934      -0.00270629      -0.00489520
Mo       0.10345141      -0.13968271       2.87750799       0.00010214      -0.00228871      -0.01424842
S        1.69845823       0.78121296       4.41152826       0.00056583      -0.00205894      -0.01146138
S        1.69832085       0.78156665       1.28339618       0.00021884      -0.00269953       0.00421952
S        1.72193035      -1.21322554       7.81310228      -0.00285751       0.01233592       0.00855769
S        1.69815370       0.78173145      11.25501973       0.00111137      -0.00258244       0.01782780
6
Lattice="1.5950000286102295 -2.7626209259033203 0.0 1.5950000286102295 2.7626209259033203 0.0 0.0 0.0 13.100000381469727" Properties=species:S:1:pos:R:3:forces:R:3 energy=-44.998331619999995 pbc="T T T"
Mo       0.03065775      -0.22602191       0.00000000       0.00147637      -0.01588534      -0.00000000
Mo       1.64732809      -1.60576682       6.55000019      -0.00029130       0.01464087      -0.00000000
S        1.62576277       0.69419092      11.54805137      -0.00031557      -0.01658823       0.00010779
S        1.64735376       2.07783936       8.10197890      -0.00027696       0.01721046       0.00105179
S        1.64735376       2.07783936       4.99802148      -0.00027696       0.01721046      -0.00105179
S        1.62576277       0.69419092       1.55194940      -0.00031557      -0.01658823      -0.00010779
6
Lattice="1.5950000286102295 -2.7626209259033203 0.0 1.5950000286102295 2.7626209259033203 0.0 0.0 0.0 13.100000381469727" Properties=species:S:1:pos:R:3:forces:R:3 energy=-40.45631950999999 pbc="T T T"
Mo      -0.14106906       0.13419405       0.01196192       0.00371997       0.01174993       0.01162991
Mo       0.66238606      -1.24545168       2.08379646      -0.01116165      -0.00130030      -0.01054822
S        0.72678853       1.35634583       7.19069179       0.00806656      -0.00830378      -0.00957424
S        1.39778980       1.02204589      11.58232974       0.00029184       0.00494952       0.01568013
S        3.11439513      -0.02183841       8.47031455       0.00893195      -0.00941664      -0.01101651
S        2.20609031      -0.35528971       3.61726222      -0.00984868       0.00232127       0.00382892
6