6
Lattice="1.5950000286102295 -2.7626209259033203 0.0 1.5950000286102295 2.7626209259033203 0.0 0.0 0.0 13.100000381469727" Properties=species:S:1:pos:R:3:forces:R:3 energy=-31.345499219999997 pbc="T T T"
Mo       0.00000000       0.00000000       0.00000000      -0.44080926      -0.13330698      10.33521468
Mo       2.04352562       0.54758223       4.25739534      -1.51156456       0.83276928      -2.55793407
S        2.16540613       1.35058841       8.82161892      -0.35581911      -1.41575479      -2.61770114
S        1.22611009      -0.19982514      10.07020303      -0.47025677       0.84958564      -3.36294164
S        1.59500003       0.00000000      11.95000038       1.24389396       0.73935619      -4.98372106
S        0.00000000       0.00000000       2.35000007       1.53455575      -0.87264935       3.18708323
6
Lattice="1.5950000286102295 -2.7626209259033203 0.0 1.5950000286102295 2.7626209259033203 0.0 0.0 0.0 13.100000381469727" Properties=species:S:1:pos:R:3:forces:R:3 energy=-30.44538925 pbc="T T T"
Mo       0.00000000       0.00000000       0.00000000       0.12273912      -0.08045833      -3.73131368
Mo       1.54515628       0.94965094      11.15000021      -0.15549127       0.04530660       3.78003581
S        1.99375004       1.72663808       6.35000034      -1.00822325       0.45673462      -1.47016385
S        1.95637920      -1.95197922       7.08922415       0.47606436      -0.12071361       3.58168468
S        1.49531253      -1.72663808       4.04999995       1.13905096      -0.64457287       1.68938774
S        1.54515628       0.08633190       3.35000028      -0.57413992       0.34370360      -3.84963069
6
Lattice="1.5950000286102295 -2.7626209259033203 0.0 1.5950000286102295 2.7626209259033203 0.0 0.0 0.0 13.100000381469727" Properties=species:S:1:pos:R:3:forces:R:3 energy=-28.529101020000002 pbc="T T T"
Mo       0.00000000       0.00000000       0.00000000       0.28076860      -0.20390412      -3.03349072
Mo       1.54515628      -0.94965094      11.15000021      -0.10145051       0.07602821       3.01229665
S        1.09656252      -1.20864666       3.45000001       4.39130749      -0.57569200      -3.99674256
S        3.09031256       0.00000000       5.65000029      -0.65314307      -1.32732139       5.60297464
S        1.59500003       0.34532762       4.55000015      -2.94749040       2.86503521       3.96241311
S        0.00000000       0.00000000       2.35000007      -0.96999210      -0.83414590      -5.54745112
6
Lattice="1.5950000286102295 -2.7626209259033203 0.0 1.5950000286102295 2.7626209259033203 0.0 0.0 0.0 13.100000381469727" Properties=species:S:1:pos:R:3:forces:R:3 energy=-28.58501295 pbc="T T T"
Mo       0.00000000       0.00000000       0.00000000       0.17365081       0.25360807       2.69740249
Mo       1.54515628      -0.94965094       1.94999998      -0.21924479      -0.55041458      -3.16927351
S        1.00769743      -1.72926794       4.11098049       2.13268777       0.88950689      -6.46701359
S        1.49531253      -0.17266381       5.25000020      -1.66152862       1.64263729      -3.75289048
S        1.49531253       2.24462950       6.35000034      -0.42070771      -1.84165076       4.55263398
S        2.04767369       0.77768317       7.51144445      -0.00485746      -0.39368692       6.13914110
6
Lattice="1.5950000286102295 -2.7626209259033203 0.0 1.5950000286102295 2.7626209259033203 0.0 0.0 0.0 13.100000381469727" Properties=species:S:1:pos:R:3:forces:R:3 energy=-32.78978044 pbc="T T T"
Mo       0.00000000       0.00000000       0.00000000      -0.06948682       0.13993408      -3.82981122
Mo       1.64484378       0.94965094      11.05000048       0.04418550      -0.02369909       3.47505257
S        1.39562503       1.03598285       7.35000036      -0.35504556      -0.55324714       4.20225939
S        0.00000000       0.00000000       2.35000007      -0.01772363      -0.14899752      -1.54283822
S        2.96000890       0.08030516       6.68384850       0.42632512       0.50941680      -3.76700836
S        1.59500003       0.34532762       3.45000001      -0.02825462       0.07659287       1.46234584
6
Lattice="1.5950000286102295 -2.7626209259033203 0.0 1.5950000286102295 2.7626209259033203 0.0 0.0 0.0 13.100000381469727" Properties=species:S:1:pos:R:3:forces:R:3 energy=-38.193184259999995 pbc="T T T"
Mo       0.00000000       0.00000000       0.00000000      -0.65586672       0.33738306      -0.35604449
Mo       1.29593752      -1.89930189       8.34999999      -0.07723372       0.26893895       2.56636125
S        1.54515628      -0.94965094      11.65000041       0.58367113       0.19621786      -2.20122630
S        1.35755819       1.78991144       6.89293594      -0.23168472       0.77859760       0.93903873
S        1.59500003      -0.86331904       1.45000007       0.03234936      -0.71024507       2.18268443
S        1.40723985      -0.24382940       5.59328576       0.34876467      -0.87089240      -3.13081361
6
Lattice="1.5950000286102295 -2.7626209259033203 0.0 1.5950000286102295 2.7626209259033203 0.0 0.0 0.0 13.100000381469727" Properties=species:S:1:pos:R:3:forces:R:3 energy=-33.134914370000004 pbc="T T T"
Mo       0.00000000       0.00000000       0.00000000      -0.66661543      -1.66908686      -0.32986238
Mo       2.43329937       0.62132516       4.52076387      -0.24835556       0.09356769      -0.54622593
S        1.54515628       0.94965094       1.45000007       0.47253785       0.35867408       1.61745501
S        1.48783171       0.08559750      11.35604868       0.45946659       0.66777081       0.70933195
S        2.77493680       0.57430604       8.46122793       0.77408555       0.74426704      -5.08926781
S        1.25166265       1.54531767       9.08114270      -0.79111900      -0.19519276       3.63856916
6
Lattice="1.5950000286102295 -2.7626209259033203 0.0 1.5950000286102295 2.7626209259033203 0.0 0.0 0.0 13.100000381469727" Properties=species:S:1:pos:R:3:forces:R:3 energy=-32.56233470000001 pbc="T T T"
Mo       0.00000000       0.00000000       0.00000000      -0.51290970       0.20121586       2.07219343
Mo       1.59500003       0.86331904      10.25000030      -0.09766419       0.21697630      -0.49086820
S        1.19502976      -1.78883462       2.16020184      -0.48318061       0.52204710      -4.49633158
S        1.88726925       1.24628777       4.67941613      -0.57552570       0.46265183       5.17694498
S        0.29906251       0.34532762       3.95000022       0.92910751      -1.15278115      -1.68283518
S        1.54515628      -0.94965094      11.65000041       0.74017269      -0.25010994      -0.57910345
6
Lattice="1.5950000286102295 -2.7626209259033203 0.0 1.5950000286102295 2.7626209259033203 0.0 0.0 0.0 13.100000381469727" Properties=species:S:1:pos:R:3:forces:R:3 energy=-34.88808161 pbc="T T T"
Mo       0.00000000       0.00000000       0.00000000      -1.22551597      -3.25748501       0.53926821
Mo       1.54515628       0.94965094      10.25000030       0.38330092       0.23440076      -0.36305537
S        1.37325681      -0.34338012       5.37749576       0.41241036      -0.65354271       3.68305488
S        1.48100715       1.40827848       4.63423940      -0.49448057       0.66430642      -3.44776347
S        1.59500003      -0.86331904      11.65000041       0.31359592      -0.38849309      -1.22108687
S        1.22845547      -1.45178920       1.67951563       0.61068935       3.40081364       0.80958263
6
Lattice="1.5950000286102295 -2.7626209259033203 0.0 1.5950000286102295 2.7626209259033203 0.0 0.0 0.0 13.100000381469727" Properties=species:S:1:pos:R:3:forces:R:3 energy=-38.04446778 pbc="T T T"
Mo       0.00000000       0.00000000       0.00000000      -0.45640979       0.19707258      -0.77758348
Mo       1.54515628       0.94965094       2.85000008       0.71214161       0.72920648      -0.85257682
S        1.59500003      -0.86331904       1.45000007      -0.51827016      -0.79035959      -0.22757848
S        1.49531253      -0.86331904       4.35000030      -0.42568576      -0.83804603      -0.74199812
S        0.49843751       0.34532762       5.55000017       0.20144366       0.44105973       4.17343067
S        1.54515628      -0.94965094      11.65000041       0.48678045       0.26106683      -1.57369378
6
Lattice="1.5950000286102295 -2.7626209259033203 0.0 1.5950000286102295 2.7626209259033203 0.0 0.0 0.0 13.100000381469727" Properties=species:S:1:pos:R:3:forces:R:3 energy=-39.025275210000004 pbc="T T T"
Mo       0.00000000       0.00000000       0.00000000       0.21210129      -0.13882532       0.74662102
Mo       1.99375004      -1.20864666       7.85000057      -0.48312871      -0.63701462       2.93358192
S        1.95472100       0.63130633       6.32801360      -1.08347009       0.33498017      -1.11819446
S        1.64484378      -0.94965094       1.55000009      -0.15746572       0.07874038      -1.26307942
S        0.87880753      -0.47889159       4.62894778       0.51404196       0.09877446      -1.00433643
S        0.24930070      -0.30214092       9.44436339       0.99792127       0.26334494      -0.29459263
6
Lattice="1.5950000286102295 -2.7626209259033203 0.0 1.5950000286102295 2.7626209259033203 0.0 0.0 0.0 13.100000381469727" Properties=species:S:1:pos:R:3:forces:R:3 energy=-35.08000868 pbc="T T T"
Mo       0.00000000       0.00000000       0.00000000       2.29352681       0.91818287       0.72950736
Mo       1.54515628      -0.08633190       6.55000019       0.05192150       0.05985515       0.19479513
S        2.19923572       1.27098291       1.72564770      -1.78123280      -1.25823261      -0.58676848
S        1.54515628       2.67628902       3.85000010       0.04524369       0.16366166       2.98178018
S        1.59500003       0.86331904      11.65000041      -0.58611111       0.08586902      -0.30035235
S        1.54515628       2.67628902       9.25000067      -0.02334809       0.03066391      -3.01896184
6
Lattice="1.5950000286102295 -2.7626209259033203 0.0 1.5950000286102295 2.7626209259033203 0.0 0.0 0.0 13.100000381469727" Properties=species:S:1:pos:R:3:forces:R:3 energy=-38.26564577 pbc="T T T"
Mo       0.00000000       0.00000000       0.00000000       0.38281291      -0.53520010       0.98961576
Mo       0.84734377       1.46764237       6.55000019       0.26173897       0.79184692       0.74756933
S        2.46264349       0.59020873       8.07727566       0.13653669      -0.59505597      -2.25698264
S        0.79750001       0.34532762       9.85000061      -0.00631469      -0.44911968      -0.40025783
S        1.64484378      -0.94965094       1.55000009      -0.55015858       0.28975358       0.06853115
S        1.64484378      -0.94965094      11.55000068      -0.22461530       0.49777525       0.85152422
6
Lattice="1.5950000286102295 -2.7626209259033203 0.0 1.5950000286102295 2.7626209259033203 0.0 0.0 0.0 13.100000381469727" Properties=species:S:1:pos:R:3:forces:R:3 energy=-37.86921128 pbc="T T T"
Mo       0.00000000       0.00000000       0.00000000       0.51452238      -2.14491961      -2.27331749
Mo       2.24556837      -1.32314254       7.16214189      -1.11262943       0.39669152      -1.78574917
S        1.61303161       0.57685662       1.44216385      -0.20859560       2.44272631       2.51532061
S        0.41282023      -0.29270997       5.51113676       1.04674321      -0.37623463       2.14682408
S        2.34265629       1.29497856      10.05000007      -0.04102622      -0.09166124      -4.46371764
S        2.35424174      -1.31755924      11.19179989      -0.19901434      -0.22660235       3.86063960
6
Lattice="1.5950000286102295 -2.7626209259033203 0.0 1.5950000286102295 2.7626209259033203 0.0 0.0 0.0 13.100000381469727" Properties=species:S:1:pos:R:3:forces:R:3 energy=-37.046607099999996 pbc="T T T"
Mo       0.00000000       0.00000000       0.00000000       0.71756813      -0.57134156      -1.60149295
Mo       0.94703127      -1.12231475       7.85000057       0.70497417      -0.35451378       0.59402036
S        0.95534549       0.47194412       6.43752763       0.08004155       4.17679189      -4.34853706
S        2.65788906       0.03910383       9.27569124      -0.75289271      -3.81336216       3.99757066
S        2.62616544       0.33043992       2.98032220      -0.93781506       0.68796297       1.97566220
S        1.54515628      -0.94965094       1.45000007       0.18812393      -0.12553736      -0.61722321
6
Lattice="1.5950000286102295 -2.7626209259033203 0.0 1.5950000286102295 2.7626209259033203 0.0 0.0 0.0 13.100000381469727" Properties=species:S:1:pos:R:3:forces:R:3 energy=-39.349970750000004 pbc="T T T"
Mo       0.00000000       0.00000000       0.00000000      -1.82533273       0.95434525      -1.76453023
Mo       1.49531253       1.72663808       8.05000003       0.25953910       0.00672212       0.06893652
S        1.54515628      -0.08633190       6.55000019      -0.23530262      -0.14041380       0.38312193
S        1.54515628       0.94965094       1.55000009       0.76516643      -0.61333162       0.51856951
S        0.71186662      -0.23854250       3.23047496       0.54244505      -0.02730941       0.87136023
S        1.54515628       0.94965094      11.55000068       0.49348478      -0.18001254      -0.07745796
6
Lattice="1.5950000286102295 -2.7626209259033203 0.0 1.5950000286102295 2.7626209259033203 0.0 0.0 0.0 13.100000381469727" Properties=species:S:1:pos:R:3:forces:R:3 energy=-39.135690690000004 pbc="T T T"
Mo       0.00000000       0.00000000       0.00000000       0.21703144      -0.62521317      -0.84535819
Mo       2.81726693      -0.29663188       9.99744458       4.47142279       2.80992002      -5.09327578
S        0.79750001       0.34532762       3.25000016       0.47589375       0.24098380       0.59433102
S        1.19625002      -1.20864666       8.45000050       0.16479375      -0.16769086       0.24373121
S        1.64484378      -0.94965094       1.55000009      -0.19212071       0.32887911       0.67925558
S        1.64484378      -0.94965094      11.55000068      -5.13702103      -2.58687890       4.42131617
6
Lattice="1.5950000286102295 -2.7626209259033203 0.0 1.5950000286102295 2.7626209259033203 0.0 0.0 0.0 13.100000381469727" Properties=species:S:1:pos:R:3:forces:R:3 energy=-40.50262196 pbc="T T T"
Mo       0.00000000       0.00000000       0.00000000       0.70344884      -0.59122662      -1.86182050
Mo       1.29593752       0.51799142       4.65000027       3.80480624       1.18053329       0.41092014
S        1.64484378      -0.94965094       1.55000009      -1.52241285      -0.33392214      -3.90861512
S        1.64484378      -0.94965094      11.55000068      -0.49614873       0.32207275      -0.02299006
S        0.35466285      -0.43576618       6.41095395      -3.01197643      -0.87212785       0.26498572
S        2.92977692      -0.35675158       3.06997371       0.52228292       0.29467057       5.11751981
6
Lattice="1.5950000286102295 -2.7626209259033203 0.0 1.5950000286102295 2.7626209259033203 0.0 0.0 0.0 13.100000381469727" Properties=species:S:1:pos:R:3:forces:R:3 energy=-39.51009652 pbc="T T T"
Mo       0.00000000       0.00000000       0.00000000       0.64036593       0.56877626      -0.03003314
Mo       1.69468753       0.86331904       3.05000012      -0.41593401      -0.19834911       2.53262456
S        1.69468753       1.89930189       9.85000061       0.07144448      -0.47625511      -0.42665734
S        1.69468753      -1.03598285       4.65000027       0.03270023       0.43305871      -1.09177683
S        1.64484378      -0.94965094       1.55000009       0.07377292      -0.14332124      -0.66076255
S        1.64484378      -0.94965094      11.55000068      -0.40234955      -0.18390951      -0.32339470
6
Lattice="1.5950000286102295 -2.7626209259033203 0.0 1.5950000286102295 2.7626209259033203 0.0 0.0 0.0 13.100000381469727" Properties=species:S:1:pos:R:3:forces:R:3 energy=-35.77326534 pbc="T T T"
Mo       0.00000000       0.00000000       0.00000000      -0.20341139      -0.03087760      -2.98147301
Mo       0.79750001      -1.38131046       1.75000013       0.12814011      -0.14992302       1.12967762
S        1.01445423      -1.37207485       4.07703040       0.33489544       0.34512404       0.28204498
S        0.47104913       0.11388428       5.89305733      -0.06085442      -0.23425495       0.59451765
S        1.54515628       0.08633190      10.94999997       0.07016626       0.13864041       2.20031564
S        1.41428116      -1.11702653       7.73711339      -0.26893600      -0.06870888      -1.22508289
6
Lattice="1.5950000286102295 -2.7626209259033203 0.0 1.5950000286102295 2.7626209259033203 0.0 0.0 0.0 13.100000381469727" Properties=species:S:1:pos:R:3:forces:R:3 energy=-38.43961288 pbc="T T T"
Mo       0.00000000       0.00000000       0.00000000       0.77794377       0.03872178      -1.16071925
Mo       0.24921875       0.08633190       6.35000034       0.03533963       0.33295364      -0.46702201
S        1.83220201       2.10227559       3.14506291      -0.25927941      -1.23229726       0.28876569
S        1.79437503      -0.86331904       4.85000012       0.18612603       0.14161522       1.83421060
S        1.64484378      -0.94965094      11.55000068      -0.52951050       0.25297549      -0.03346203
S        1.64484378      -0.94965094       1.55000009      -0.21061952       0.46603113      -0.46177300
6
Lattice="1.5950000286102295 -2.7626209259033203 0.0 1.5950000286102295 2.7626209259033203 0.0 0.0 0.0 13.100000381469727" Properties=species:S:1:pos:R:3:forces:R:3 energy=-38.3882682 pbc="T T T"
Mo       0.00000000       0.00000000       0.00000000       0.13001539       0.29968331       0.46170053
Mo       1.97671160      -1.04918717      11.01938527      -0.68571445       2.19585033      -0.76781959
S        0.30406985       0.20336637       9.38751807       0.41113936      -2.46192391      -0.11441990
S        1.39562503      -0.86331904       4.95000024       0.46878307       0.00756970      -1.76210688
S        0.69781251       0.51799142       3.25000016      -0.25616676      -0.26679659       3.67698136
S        1.59500003      -0.86331904       1.55000009      -0.06805662       0.22561717      -1.49433551
6
Lattice="1.5950000286102295 -2.7626209259033203 0.0 1.5950000286102295 2.7626209259033203 0.0 0.0 0.0 13.100000381469727" Properties=species:S:1:pos:R:3:forces:R:3 energy=-39.75454452 pbc="T T T"
Mo       0.00000000       0.00000000       0.00000000       1.02163068      -0.60011336      -0.27024270
Mo       0.99687502      -0.69065523       8.25000026       0.06272566      -1.38232044       0.68191975
S        0.95023539       0.31597953       5.01481110      -0.09196291       0.00502977      -0.80351577
S        1.64484378      -0.94965094      11.55000068      -0.61861035       0.35452508      -0.44434316
S        1.64484378      -0.94965094       1.55000009      -0.53908634       0.31623231       0.23778706
S        2.59187505       0.17266381       6.75000043       0.16530325       1.30664664       0.59839482
6
Lattice="1.5950000286102295 -2.7626209259033203 0.0 1.5950000286102295 2.7626209259033203 0.0 0.0 0.0 13.100000381469727" Properties=species:S:1:pos:R:3:forces:R:3 energy=-37.81897212 pbc="T T T"
Mo       0.00000000       0.00000000       0.00000000       0.39016652      -0.35322720       1.68602983
Mo       1.92315168      -0.95480134       2.20261993      -0.55060898       0.36577498      -0.19604813
S        1.59500003       0.86331904      11.55000068       0.39221590       0.17629158       2.83398305
S        2.85038560       0.08942612      10.18104445       0.37303894      -0.33650205      -2.61361360
S        0.29906251       0.00000000       3.74999998       0.28681915      -0.38404734      -0.02522541
S        2.21265163       0.45531349       8.42956564      -0.89163152       0.53171003      -1.68512573
6
Lattice="1.5950000286102295 -2.7626209259033203 0.0 1.5950000286102295 2.7626209259033203 0.0 0.0 0.0 13.100000381469727" Properties=species:S:1:pos:R:3:forces:R:3 energy=-35.27904015 pbc="T T T"
Mo       0.00000000       0.00000000       0.00000000      -1.19007080       0.62141201       1.48737838
Mo       1.54515628      -1.29497856       3.25000016      -0.00170749      -0.72321434      -1.36063788
S        1.54515628      -0.08633190       6.55000019       0.00668857      -0.38309964       1.02035821
S        0.92081196      -0.33887015       9.95141440       0.34448919       0.42127490      -1.51561150
S        1.54566091       2.38347638       4.77546686      -0.00050289       1.19732810      -0.97396294
S        1.54515628       0.94965094      11.55000068       0.84110343      -1.13370103       1.34247573
6
Lattice="1.5950000286102295 -2.7626209259033203 0.0 1.5950000286102295 2.7626209259033203 0.0 0.0 0.0 13.100000381469727" Properties=species:S:1:pos:R:3:forces:R:3 energy=-39.56964403 pbc="T T T"
Mo       0.00000000       0.00000000       0.00000000       0.39671372       0.34122526       0.12737567
Mo       1.16325110       0.41675775       3.41000676      -0.39376313      -0.29053354       1.93096226
S        2.79125005      -0.51799142       4.95000024       0.07732511       0.56497560      -0.40041427
S        1.64484378      -0.94965094       1.55000009       0.20708990      -0.05937067      -0.43165263
S        1.63585088       1.83763368       9.92323614      -0.03815009      -0.37329886      -0.86126560
S        1.64484378      -0.94965094      11.55000068      -0.24921551      -0.18299779      -0.36500544
6
Lattice="1.5950000286102295 -2.7626209259033203 0.0 1.5950000286102295 2.7626209259033203 0.0 0.0 0.0 13.100000381469727" Properties=species:S:1:pos:R:3:forces:R:3 energy=-35.50795352 pbc="T T T"
Mo       0.00000000       0.00000000       0.00000000      -0.24691011       0.91762820      -5.28336788
Mo       1.51745305      -0.42229930       1.56143638      -0.17903420      -6.03388420      -0.21202371
S        1.64484378      -0.94965094       8.15000054      -0.01933089       0.18452946       1.53970377
S        1.59500003       1.89930189       9.85000061      -0.04983394      -0.43338119      -3.18930204
S        1.64484378      -0.94965094      11.55000068      -0.48344349      -0.24024477       0.08379838
S        1.90976800       0.68329536       3.16118452       0.97855264       5.60535251       7.06119148
6
Lattice="1.5950000286102295 -2.7626209259033203 0.0 1.5950000286102295 2.7626209259033203 0.0 0.0 0.0 13.100000381469727" Properties=species:S:1:pos:R:3:forces:R:3 energy=-38.815075070000006 pbc="T T T"
Mo       0.00000000       0.00000000       0.00000000       0.12054982      -0.42977624      -0.32876537
Mo       0.24921875       0.08633190       6.35000034      -1.79539229       0.25594687      -2.83891311
S        1.64484378      -0.94965094       1.55000009      -0.24025167       0.22419455      -1.23516138
S        1.26523971       1.80710214      10.28013609       0.27775792       0.24821857       1.71965622
S        1.82947019      -0.84891595       4.79979373      -0.42356579      -0.30724063       0.48416760
S        1.44817901       0.18922960       8.08051294       2.06090201       0.00865688       2.19901603
6
Lattice="1.5950000286102295 -2.7626209259033203 0.0 1.5950000286102295 2.7626209259033203 0.0 0.0 0.0 13.100000381469727" Properties=species:S:1:pos:R:3:forces:R:3 energy=-42.76886949000001 pbc="T T T"
Mo       0.00000000       0.00000000       0.00000000       0.76220352      -0.61905954      -1.05672388
Mo       0.84734377      -1.46764237       4.75000000      -1.30109808      -0.68626286       2.53864582
S        1.64484378      -0.94965094       1.55000009       0.00410039       0.13670180      -3.14495251
S        0.79750001       0.34532762       6.35000034       0.43595016       0.25162293      -0.56274762
S        0.79750001       0.34532762       3.25000016       0.63248699       0.66137706       2.33097019
S        1.64484378      -0.94965094      11.55000068      -0.53364298       0.25562061      -0.10519199
6
Lattice="1.5950000286102295 -2.7626209259033203 0.0 1.5950000286102295 2.7626209259033203 0.0 0.0 0.0 13.100000381469727" Properties=species:S:1:pos:R:3:forces:R:3 energy=-38.65047755999999 pbc="T T T"
Mo       0.00000000       0.00000000       0.00000000      -1.02175994      -0.43436987      -2.80301204
Mo       0.79750001      -1.38131046       1.85000006      -0.82790726      -0.85121688       1.44091583
S        1.54515628      -0.94965094      11.55000068       1.03797167       0.56014966      -0.31783057
S        1.64484378       1.81296998       5.05000036      -0.21713007       0.10780517       3.60085138
S        0.74765626       0.43165952       3.35000028       0.84436406       0.69326864      -0.13045776
S        0.74765626       0.43165952       6.75000043       0.18446154      -0.07563672      -1.79046685
6
Lattice="1.5950000286102295 -2.7626209259033203 0.0 1.5950000286102295 2.7626209259033203 0.0 0.0 0.0 13.100000381469727" Properties=species:S:1:pos:R:3:forces:R:3 energy=-39.78673797 pbc="T T T"
Mo       0.00000000       0.00000000       0.00000000       0.76874746      -0.40066864       0.99306744
Mo       0.00000000       0.00000000       3.25000016       0.36959446       3.97837011      -3.56163237
S        1.64484378       0.94965094      11.55000068      -0.37762212       0.15406430      -0.61779128
S        1.59564065       1.15961064       4.66590169      -0.09490905      -3.73719825       2.84428238
S        1.69468753      -1.89930189       9.85000061       0.00779985       0.48967089      -0.55516017
S        1.64484378       0.94965094       1.55000009      -0.67361061      -0.48423842       0.89723401
6
Lattice="1.5950000286102295 -2.7626209259033203 0.0 1.5950000286102295 2.7626209259033203 0.0 0.0 0.0 13.100000381469727" Properties=species:S:1:pos:R:3:forces:R:3 energy=-32.4103866 pbc="T T T"
Mo       0.00000000       0.00000000       0.00000000      -1.34113182      -0.83026649       0.14676210
Mo       0.79750001      -1.38131046       1.85000006       0.22079043       0.15240996       0.29843602
S        1.40193873      -0.87900478       8.27588526       1.34741091      -1.62616625      -2.68626374
S        1.54515628      -0.94965094      11.55000068       1.18826947       0.67325323      -0.10833761
S        2.21881641      -0.41230347       6.63129614      -1.58230151      -0.67445113      -5.39705401
S        3.09884000      -0.04512859       8.90933946       0.16696252       2.30522068       7.74645726
6
Lattice="1.5950000286102295 -2.7626209259033203 0.0 1.5950000286102295 2.7626209259033203 0.0 0.0 0.0 13.100000381469727" Properties=species:S:1:pos:R:3:forces:R:3 energy=-44.3320761 pbc="T T T"
Mo       0.00000000       0.00000000       0.00000000       1.07940424       0.64138585       0.00551257
Mo       1.62773512       2.14959927       6.62256422      -0.97951401      -2.11422528       1.64889876
S        1.59500003       0.34532762       5.15000008       0.33350755      -0.17640917      -1.20670702
S        1.64484378       0.94965094      11.55000068      -0.53576513      -0.25778942       0.02407090
S        1.64484378       0.94965094       1.55000009      -0.53854955      -0.29213708       0.03890859
S        1.56883721      -0.04337359       8.27541676       0.64091690       2.19917510      -0.51068380
6
Lattice="1.5950000286102295 -2.7626209259033203 0.0 1.5950000286102295 2.7626209259033203 0.0 0.0 0.0 13.100000381469727" Properties=species:S:1:pos:R:3:forces:R:3 energy=-39.46959268 pbc="T T T"
Mo       0.00000000       0.00000000       0.00000000       1.01537874       0.45488823      -0.40414059
Mo       0.00000000       0.00000000       3.25000016       2.69445587      -2.64759377      -5.10320409
S        1.77917952       0.76787721       4.63131991      -2.85206055       2.73113658       3.27149311
S        1.64484378       0.94965094       1.55000009      -0.70614539      -0.26784546       0.98725493
S        1.95463929      -1.81484972       6.34861946       0.41160776       0.00638226       1.07734863
S        1.64484378       0.94965094      11.55000068      -0.56323644      -0.27696785       0.17124801
6
Lattice="1.5950000286102295 -2.7626209259033203 0.0 1.5950000286102295 2.7626209259033203 0.0 0.0 0.0 13.100000381469727" Properties=species:S:1:pos:R:3:forces:R:3 energy=-44.83653615 pbc="T T T"
Mo       0.00000000       0.00000000       0.00000000       1.08337611       0.61716871       0.00000000
Mo       1.64484378      -1.81296998       6.55000019       0.00108706      -1.37595617       0.00000000
S        1.64484378       0.94965094      11.55000068      -0.54212141      -0.34562847      -0.03951197
S        1.64484378       1.81296998       8.05000003      -0.00011018       0.72502219       1.06528993
S        1.64484378       1.81296998       5.05000036      -0.00011018       0.72502219      -1.06528993
S        1.64484378       0.94965094       1.55000009      -0.54212141      -0.34562847       0.03951197
6
Lattice="1.5950000286102295 -2.7626209259033203 0.0 1.5950000286102295 2.7626209259033203 0.0 0.0 0.0 13.100000381469727" Properties=species:S:1:pos:R:3:forces:R:3 energy=-38.97190381000001 pbc="T T T"
Mo       0.00000000       0.00000000       0.00000000       0.72641817       0.88725970      -2.00207603
Mo       0.79750001      -1.38131046       1.85000006      -1.35199721       0.75034935       3.97861757
S        0.79750001       1.38131046       7.24999985      -0.72345418      -0.00710744       0.23178057
S        1.54515628       0.94965094      11.55000068      -0.29766639      -0.73484213      -0.17946934
S        2.94576399       0.02460573       8.55434081       0.77444537      -0.02636926      -0.28128812
S        1.88046048      -0.08425070       3.75201528       0.87225424      -0.86929023      -1.74756465
6