4
Lattice="4.5648287 0.0 0.0 0.0 4.5648287 0.0 0.0 0.0 4.5648287" Properties=species:S:1:pos:R:3:forces:R:3 energy=163.4172479 stress="-1.778527941580609 1.2427063738926831 0.5452411376866847 1.2427063738926831 -0.8569154071006652 -0.496006659611095 0.5452411376866847 -0.496006659611095 -0.2665683287194301" free_energy=163.41703429 pbc="T T T"
Al       4.10182575       0.06830874       3.46883122       9.02223644       1.22869562       7.25687611
Al       0.71401311       1.48840905       0.98614939     531.57649478    -392.76331759    -204.05016340
Al       0.40820985       1.71411527       1.10356783    -531.85666917     392.14522221     204.47916342
Al       2.64474270       4.47253786       2.25181913      -8.74206204      -0.61060024      -7.68587613
4
Lattice="4.58571012 0.0 0.0 0.0 4.58571012 0.0 0.0 0.0 4.58571012" Properties=species:S:1:pos:R:3:forces:R:3 energy=93.61994436 stress="0.011541003756981048 -0.13420188184536017 0.06198903758838322 -0.13420188184536017 -1.009178659755163 0.2294901895749845 0.06198903758838322 0.2294901895749845 -1.3596622942121512" free_energy=93.61994357 pbc="T T T"
Al       1.33413119       2.84438204       1.50840670      15.05782621     127.62067268      13.43517749
Al       1.24009832       2.12612556       1.75426749     -14.56815535    -105.26489907      63.38941199
Al       1.08109987       0.95508125       3.12771367      -1.47770327     -10.75892676       9.43462809
Al       1.30707835       2.37480931       0.39018381       0.98803241     -11.59684686     -86.25921757
4
Lattice="4.74147056 0.0 0.0 0.0 4.74147056 0.0 0.0 0.0 4.74147056" Properties=species:S:1:pos:R:3:forces:R:3 energy=28.454048500000003 stress="-0.15027631790044405 -0.15427471867401252 0.2960018025872819 -0.15427471867401252 -0.11683126584167419 0.21345312113544482 0.2960018025872819 0.21345312113544482 -0.6032234060233768" free_energy=28.45375118 pbc="T T T"
Al       3.59941711       2.17890576       0.38427561      34.19712181      28.19151181     -77.15823429
Al       4.29023007       0.04476972       4.19623767       0.56761511      -0.90323452       0.05177094
Al       1.75869720       0.39956022       1.31245337      -4.45581747      -4.23349488      -0.52409348
Al       3.20111774       1.87209478       1.26172490     -30.30891946     -23.05478241      77.63055683
4
Lattice="4.74147056 0.0 0.0 0.0 4.74147056 0.0 0.0 0.0 4.74147056" Properties=species:S:1:pos:R:3:forces:R:3 energy=28.454048500000003 stress="-0.15027631790044405 -0.15427471867401252 0.2960018025872819 -0.15427471867401252 -0.11683126584167419 0.21345312113544482 0.2960018025872819 0.21345312113544482 -0.6032234060233768" free_energy=28.45375118 pbc="T T T"
Al       3.59941711       2.17890576       0.38427561      34.19712181      28.19151181     -77.15823429
Al       4.29023007       0.04476972       4.19623767       0.56761511      -0.90323452       0.05177094
Al       1.75869720       0.39956022       1.31245337      -4.45581747      -4.23349488      -0.52409348
Al       3.20111774       1.87209478       1.26172490     -30.30891946     -23.05478241      77.63055683
4
Lattice="4.54647859 0.0 0.0 0.0 4.54647859 0.0 0.0 0.0 4.54647859" Properties=species:S:1:pos:R:3:forces:R:3 energy=86.2572333 stress="-0.8395281468895592 0.47498785711902963 0.1925413156047471 0.47498785711902963 -0.448028239184752 0.31469825104440824 0.1925413156047471 0.31469825104440824 -1.2553326225892212" free_energy=86.25702435 pbc="T T T"
Al       3.93122206       3.72134465       2.45714995      81.72059712     -32.91387966     -65.15613817
Al       2.95648442       4.23107873       2.72723573     -87.31789098      56.39176140     -46.39187480
Al       3.33472275       3.80572142       3.50809671       5.65066202     -33.20868300     120.64691953
Al       2.96399152       1.07851742       1.49639882      -0.05336817       9.73080126      -9.09890657
4
Lattice="4.73401939 0.0 0.0 0.0 4.73401939 0.0 0.0 0.0 4.73401939" Properties=species:S:1:pos:R:3:forces:R:3 energy=-8.07561249 stress="0.03650529899805663 -0.052611004832857446 0.034406052550233296 -0.052611004832857446 -0.10232658514149254 0.14860153570404666 0.034406052550233296 0.14860153570404666 -0.13264473568705817" free_energy=-8.07561249 pbc="T T T"
Al       4.15788369       3.32369357       1.67766016      -2.55846815     -10.77180502       9.51032229
Al       1.59775616       1.31530459       1.42355007      -0.23497790      -0.98076942       4.01792323
Al       2.20379756       2.35447908       4.32298882       1.01828430       1.93567947      -3.70556092
Al       4.49276439       4.66284611       0.48329462       1.77516175       9.81689497      -9.82268460
4
Lattice="4.73401939 0.0 0.0 0.0 4.73401939 0.0 0.0 0.0 4.73401939" Properties=species:S:1:pos:R:3:forces:R:3 energy=-13.3718969 stress="0.03684074384416333 0.005629657618831234 0.005631272022615698 0.005629657618831234 0.047209917756902524 0.0035933409932828305 0.005631272022615698 0.0035933409932828305 0.01818736668710726" free_energy=-13.37213486 pbc="T T T"
Al       4.07927644       2.70342833       1.79294035       0.00009306       0.00003708      -0.00003006
Al       1.68909211       1.31861887       1.68952295      -0.00020556       0.00039331       0.00006168
Al       2.70185261       2.58814436       4.11785325       0.00006910      -0.00003294      -0.00015577
Al       3.98198060       5.04613182       0.30717717       0.00004340      -0.00039745       0.00012414
4
Lattice="4.73401939 0.0 0.0 0.0 4.73401939 0.0 0.0 0.0 4.73401939" Properties=species:S:1:pos:R:3:forces:R:3 energy=-13.3718969 stress="0.03684074384416333 0.005629657618831234 0.005631272022615698 0.005629657618831234 0.047209917756902524 0.0035933409932828305 0.005631272022615698 0.0035933409932828305 0.01818736668710726" free_energy=-13.37213486 pbc="T T T"
Al       4.07927644       2.70342833       1.79294035       0.00009306       0.00003708      -0.00003006
Al       1.68909211       1.31861887       1.68952295      -0.00020556       0.00039331       0.00006168
Al       2.70185261       2.58814436       4.11785325       0.00006910      -0.00003294      -0.00015577
Al       3.98198060       5.04613182       0.30717717       0.00004340      -0.00039745       0.00012414
4
Lattice="4.01940492 0.0 0.0 0.0 4.01940492 0.0 0.0 0.0 4.01940492" Properties=species:S:1:pos:R:3:forces:R:3 energy=53.04137284 stress="-0.8686803399459517 0.12749268970608613 -0.0435348210456174 0.12749268970608613 -0.10427503108651029 -0.21654563159008244 -0.0435348210456174 -0.21654563159008244 -2.0724772006110155" free_energy=53.04136912 pbc="T T T"
Al       0.94377669       2.59227461       2.69220200      -3.47490102       7.33581146      -6.00858723
Al       2.90877047       1.87152609       2.05270069      14.21941576     -27.59766598    -101.33682642
Al       3.73368082       1.90906593       0.05847286      18.46880884      -6.96874233      27.50770876
Al       2.77441125       2.08618772       2.91698561     -29.21332358      27.23059686      79.83770489
4
Lattice="4.52819642 0.0 0.0 0.0 4.52819642 0.0 0.0 0.0 4.52819642" Properties=species:S:1:pos:R:3:forces:R:3 energy=-8.33960668 stress="-0.17809848062039577 0.0780889596413714 -0.014795094587114824 0.0780889596413714 -0.0427214382493129 -0.0824597489844985 -0.014795094587114824 -0.0824597489844985 -0.11201439742042203" free_energy=-8.3398366 pbc="T T T"
Al       2.31447824       4.10123586       0.14882710      -4.30173410      -1.80464277      -4.00104511
Al       3.72312870       0.02953086       1.55222643       5.15624849       1.27428194       4.35262120
Al       0.14680209       1.61019826       3.48837522      -9.16601392       6.49476962       5.96997343
Al       1.48182860       0.59923285       2.66944872       8.31149953      -5.96440878      -6.32154951
4
Lattice="4.52819642 0.0 0.0 0.0 4.52819642 0.0 0.0 0.0 4.52819642" Properties=species:S:1:pos:R:3:forces:R:3 energy=-13.707229070000002 stress="0.03343672479333185 -6.581126489497207e-05 8.438226987265248e-05 -6.581126489497207e-05 0.04681038893361938 6.0669397329905175e-05 8.438226987265248e-05 6.0669397329905175e-05 0.019325761871708872" free_energy=-13.70788386 pbc="T T T"
Al       1.91597002       3.54319207       0.15591314       0.00066241      -0.01322059       0.00002958
Al       4.18045833       0.15441213       1.34505782       0.00069846       0.00068332      -0.00529259
Al      -0.34688964       1.89462736       3.77463892      -0.00089687       0.01070745      -0.00059428
Al       1.91669897       0.74796631       2.58326759      -0.00046400       0.00182982       0.00585728
4
Lattice="4.16167397 0.0 0.0 0.0 4.16167397 0.0 0.0 0.0 4.16167397" Properties=species:S:1:pos:R:3:forces:R:3 energy=28.791908630000002 stress="-0.5901069126248482 0.19269384778929363 0.6043542527206 0.19269384778929363 -0.9337170691100376 -0.34440305189603726 0.6043542527206 -0.34440305189603726 -0.5402764668777771" free_energy=28.79169967 pbc="T T T"
Al       3.36868048       2.24684104       3.09095708      12.04453075      14.94059455      -5.37770368
Al       1.08042595       1.09913867       0.71363927     -10.74846841       1.41266546      10.18426327
Al       2.39999406       0.92332006       3.64365164     -37.49283856      31.15742673      39.84763536
Al       2.95925008       0.23932068       2.98908845      36.19677623     -47.51068674     -44.65419495
4
Lattice="4.71345611 0.0 0.0 0.0 4.71345611 0.0 0.0 0.0 4.71345611" Properties=species:S:1:pos:R:3:forces:R:3 energy=22.37374825 stress="-0.33939424197095364 0.09090755173251372 -0.4397480483757163 0.09090755173251372 -0.04330670344281684 0.025502411643978474 -0.4397480483757163 0.025502411643978474 -0.4616288021982851" free_energy=22.37341542 pbc="T T T"
Al       1.16443449       3.41419698       2.16068377     -51.23106266       9.94321285     -58.60113414
Al       1.86822575       3.27903009       2.96931247      48.07133881     -11.96842524      55.15790809
Al       3.00285225       4.26098487       4.52405101       1.33694351       4.96358341       3.73903226
Al       3.97486169       2.28066272       4.01070120       1.82278034      -2.93837103      -0.29580621
4
Lattice="4.68558417 0.0 0.0 0.0 4.68558417 0.0 0.0 0.0 4.68558417" Properties=species:S:1:pos:R:3:forces:R:3 energy=30.81055819 stress="-0.8110998688154121 -0.03379951600027742 -0.14238875967749987 -0.03379951600027742 -0.04832458904021476 0.1957289470579198 -0.14238875967749987 0.1957289470579198 -0.6313257763647427" free_energy=30.81007326 pbc="T T T"
Al       0.02455569       3.15780269       4.29506434     -69.43310806      -3.56667646      -3.46982395
Al       3.50753244       3.03261058       2.49277703      -2.18748489      -0.28117315      -3.11125047
Al       1.27870440       2.81381891       0.92475340      10.29951759     -15.05788964      47.33379489
Al       1.20273918       3.26663063       4.27657025      61.32107536      18.90573925     -40.75272048
4
Lattice="4.53173977 0.0 0.0 0.0 4.53173977 0.0 0.0 0.0 4.53173977" Properties=species:S:1:pos:R:3:forces:R:3 energy=52.80276396 stress="-1.085397519426842 0.020945821624362076 -0.17951921437749144 0.020945821624362076 -0.4471629876999888 -0.2330987533031914 -0.17951921437749144 -0.2330987533031914 -0.10781138082875714" free_energy=52.802555 pbc="T T T"
Al       3.62701246       2.23587158       1.69313805     -92.91586083     -54.83882318     -42.56321647
Al       4.41787360       2.46538634       1.93387730     113.87934959      24.81169632      31.66389548
Al       1.30597802       3.23254776       4.48538030       0.39810968       0.25295553      -0.03809705
Al       2.91903729       3.53034931       2.20582941     -21.36159845      29.77417133      10.93741804
4
Lattice="4.62746677 0.0 0.0 0.0 4.62746677 0.0 0.0 0.0 4.62746677" Properties=species:S:1:pos:R:3:forces:R:3 energy=-6.92094543 stress="-0.017016348725889485 0.030182425615381946 -0.05284299754525541 0.030182425615381946 -0.13844489281665096 0.14686010055652413 -0.05284299754525541 0.14686010055652413 -0.21821306116389938" free_energy=-6.92121864 pbc="T T T"
Al       1.46472877       3.57528129       4.39655160      -0.60727575      -1.85838937      -0.78486591
Al       0.24455449       1.13796539       3.49479178      -1.27414286     -10.05008984      11.88236948
Al       0.12391912       2.14690016       2.08018847      -1.73047865      11.17159287     -14.14843870
Al       1.74272407       1.18151887       0.48837771       3.61189727       0.73688635       3.05093514
4
Lattice="4.62746677 0.0 0.0 0.0 4.62746677 0.0 0.0 0.0 4.62746677" Properties=species:S:1:pos:R:3:forces:R:3 energy=-13.67817495 stress="0.05152289243790219 -0.0009857191832018026 -0.00025724911638905375 -0.0009857191832018026 0.06795025731035807 -0.0005441207221989692 -0.00025724911638905375 -0.0005441207221989692 0.06757754128626466" free_energy=-13.67887032 pbc="T T T"
Al       1.73889563       3.22006768       3.92794752       0.00979441      -0.00347191      -0.00201147
Al      -0.14579561       0.99312471       3.90204657      -0.00475087      -0.00294622      -0.00202666
Al      -0.13336790       2.83360336       1.51661313      -0.00267262       0.00862622      -0.00666947
Al       2.11619423       0.99486986       1.11330233      -0.00237092      -0.00220809       0.01070759
4
Lattice="4.67646094 0.0 0.0 0.0 4.67646094 0.0 0.0 0.0 4.67646094" Properties=species:S:1:pos:R:3:forces:R:3 energy=-7.086197349999999 stress="-0.18987173321010178 -0.15119238410746882 -0.05886922033159155 -0.15119238410746882 -0.07027667411210799 -0.000858334082614021 -0.05886922033159155 -0.000858334082614021 -0.12022577266407707" free_energy=-7.08641252 pbc="T T T"
Al       0.97282462       0.93607143       4.23338764       2.13683015       2.74313765      -3.87012612
Al       2.41745374       1.59918166       0.82409390       9.48737656       5.79069648       1.22793397
Al       1.04809567       0.34222280       1.70422157      -3.73546717      -4.83766074       4.57462882
Al       4.01870301       0.02959241       3.55208082      -7.88873954      -3.69617339      -1.93243667
4
Lattice="4.67646094 0.0 0.0 0.0 4.67646094 0.0 0.0 0.0 4.67646094" Properties=species:S:1:pos:R:3:forces:R:3 energy=-13.4961903 stress="0.05530432701343285 -8.759146661990788e-07 5.125027973445261e-07 -8.759146661990788e-07 0.07194285505329975 4.4092142578342135e-06 5.125027973445261e-07 4.4092142578342135e-06 0.045963905467069466" free_energy=-13.49652319 pbc="T T T"
Al       0.94514428       1.60843788       3.94263981       0.00004053       0.00036970      -0.00086644
Al       3.28336810       1.60905119       1.21434021       0.00001190      -0.00014012       0.00093999
Al       0.94512777      -0.15550271       1.60434284       0.00001718       0.00012525      -0.00097600
Al       3.28343694      -0.15491806       3.55246102      -0.00006961      -0.00035483       0.00090245
4
Lattice="4.67646094 0.0 0.0 0.0 4.67646094 0.0 0.0 0.0 4.67646094" Properties=species:S:1:pos:R:3:forces:R:3 energy=-13.4961903 stress="0.05530432701343285 -8.759146661990788e-07 5.125027973445261e-07 -8.759146661990788e-07 0.07194285505329975 4.4092142578342135e-06 5.125027973445261e-07 4.4092142578342135e-06 0.045963905467069466" free_energy=-13.49652319 pbc="T T T"
Al       0.94514428       1.60843788       3.94263981       0.00004053       0.00036970      -0.00086644
Al       3.28336810       1.60905119       1.21434021       0.00001190      -0.00014012       0.00093999
Al       0.94512777      -0.15550271       1.60434284       0.00001718       0.00012525      -0.00097600
Al       3.28343694      -0.15491806       3.55246102      -0.00006961      -0.00035483       0.00090245
4
Lattice="3.83718304 0.0 0.0 0.0 3.83718304 0.0 0.0 0.0 3.83718304" Properties=species:S:1:pos:R:3:forces:R:3 energy=28.902898659999998 stress="-0.9438425408647682 0.11651142919985367 -0.022332159161163066 0.11651142919985367 -1.1641378115096261 0.3362271865201842 -0.022332159161163066 0.3362271865201842 -1.2414301413328925" free_energy=28.90261571 pbc="T T T"
Al       1.16842638       2.34362815       1.30206687      10.88515101      17.93051747     -66.77793327
Al       3.41431173       2.85513697       1.44490359     -13.54882809       5.61036604      -3.88657012
Al       1.84856216       3.47570724       2.46989112       3.82171804      19.01369750      16.52185478
Al       1.19758648       1.71334739       2.28565315      -1.15804097     -42.55458101      54.14264861
4
Lattice="4.594942 0.0 0.0 0.0 4.594942 0.0 0.0 0.0 4.594942" Properties=species:S:1:pos:R:3:forces:R:3 energy=-0.7724923699999999 stress="-0.4558387876021615 0.02468657071044436 0.04214130766449892 0.02468657071044436 -0.020035799207937115 0.0037697684085442377 0.04214130766449892 0.0037697684085442377 -0.2132746802030979" free_energy=-0.77270144 pbc="T T T"
Al       0.34480964       3.21271815       2.29179625      17.76805634      -3.62107525      14.45189005
Al       3.34475455       3.51470803       2.14726120     -23.39904339       4.45739271      -2.56254563
Al       4.29060851       2.02481808       4.25381521      -3.74350120      -3.37978088      -0.46976828
Al       1.17543142       3.21388357       0.69314548       9.37448825       2.54346342     -11.41957614
4
Lattice="4.594942 0.0 0.0 0.0 4.594942 0.0 0.0 0.0 4.594942" Properties=species:S:1:pos:R:3:forces:R:3 energy=-13.565551350000002 stress="0.022415892251671534 -0.0001792661534760051 -2.120213187422389e-05 -0.0001792661534760051 0.0512445025998472 -6.6896120320669214e-06 -2.120213187422389e-05 -6.6896120320669214e-06 0.03621064977282684" free_energy=-13.56588131 pbc="T T T"
Al       0.56216827       2.67106896       2.34658349       0.00000812      -0.00029004      -0.00017636
Al       3.00632020       4.35926572       2.34619181      -0.00000998       0.00084707       0.00039261
Al       3.86789917       1.61984300       4.64419946      -0.00003444       0.00036091      -0.00005875
Al       1.71921648       3.31595014       0.04904338       0.00003630      -0.00091794      -0.00015749
4
Lattice="4.594942 0.0 0.0 0.0 4.594942 0.0 0.0 0.0 4.594942" Properties=species:S:1:pos:R:3:forces:R:3 energy=-13.565551350000002 stress="0.022415892251671534 -0.0001792661534760051 -2.120213187422389e-05 -0.0001792661534760051 0.0512445025998472 -6.6896120320669214e-06 -2.120213187422389e-05 -6.6896120320669214e-06 0.03621064977282684" free_energy=-13.56588131 pbc="T T T"
Al       0.56216827       2.67106896       2.34658349       0.00000812      -0.00029004      -0.00017636
Al       3.00632020       4.35926572       2.34619181      -0.00000998       0.00084707       0.00039261
Al       3.86789917       1.61984300       4.64419946      -0.00003444       0.00036091      -0.00005875
Al       1.71921648       3.31595014       0.04904338       0.00003630      -0.00091794      -0.00015749
4
Lattice="4.15260863 0.0 0.0 0.0 4.15260863 0.0 0.0 0.0 4.15260863" Properties=species:S:1:pos:R:3:forces:R:3 energy=27.17420172 stress="-1.1602580969892031 -0.43206558146151675 0.009478561566088234 -0.43206558146151675 -0.17804750027968955 -0.07411804070059741 0.009478561566088234 -0.07411804070059741 -0.7627446983340728" free_energy=27.17420108 pbc="T T T"
Al       2.61400123       3.50970695       0.22873519      11.39220983       7.58055454     -12.82500141
Al       3.85899250       2.52530546       2.37792223     -60.65538036     -26.43686921     -29.37879379
Al       1.59956765       2.80559267       1.45785274       1.87109316      -8.22955482      -5.01535406
Al       0.63579893       2.93247197       2.86421255      47.39207736      27.08586949      47.21914925
4
Lattice="4.7013873 0.0 0.0 0.0 4.7013873 0.0 0.0 0.0 4.7013873" Properties=species:S:1:pos:R:3:forces:R:3 energy=5.33013459 stress="-0.1376048600434053 -0.20955200673341395 0.19175291763813013 -0.20955200673341395 -0.32911703592747876 0.2664225525191236 0.19175291763813013 0.2664225525191236 -0.18610033792099634" free_energy=5.32989331 pbc="T T T"
Al       0.78809322       2.29218756       1.31968717     -22.80051043     -30.40340809      21.79279636
Al       3.32011792       3.24247188       2.63660062       0.57866112       5.31486634      -5.70376647
Al       2.95649933       1.87940825       4.08242315      -0.41347957      -6.68278704       4.98521794
Al       1.52730490       3.23002994       0.63489744      22.63532889      31.77132878     -21.07424783
4
Lattice="4.76286502 0.0 0.0 0.0 4.76286502 0.0 0.0 0.0 4.76286502" Properties=species:S:1:pos:R:3:forces:R:3 energy=37.30552355 stress="-0.37909491621262337 -0.24528076171388358 0.3509956158948341 -0.24528076171388358 -0.3723725046880924 0.34633883150968026 0.3509956158948341 0.34633883150968026 -0.6127484325728092" free_energy=37.30521155 pbc="T T T"
Al       3.12593437       1.39416589       0.91115551       0.61174234       3.09396887       2.15839046
Al       1.87744538       3.18689981       1.36466404     -26.60526726     -40.26280916      71.47937202
Al       3.45320226       4.36400122       4.72434163      27.61475124       8.40966472     -13.77282624
Al       2.18561741       3.69816560       0.52441401      -1.62122633      28.75917557     -59.86493624
4
Lattice="3.92443125 0.0 0.0 0.0 3.92443125 0.0 0.0 0.0 3.92443125" Properties=species:S:1:pos:R:3:forces:R:3 energy=96.05543886000001 stress="-1.7435524498323776 0.06831763730602054 -1.2251309174889191 0.06831763730602054 -0.5631925658292567 0.14306478093254676 -1.2251309174889191 0.14306478093254676 -1.176769575802813" free_energy=96.05522815 pbc="T T T"
Al       1.42395512       3.43123067       3.63921685      -1.74101420      18.56885562      -9.36128954
Al       2.64602842       2.50497914       0.69382190       7.26824085      -3.54031663      12.93745586
Al       0.74470463       1.74471160       0.00040167     177.14922980     -18.77679391     165.13851670
Al       0.32268746       1.76577900       3.54677393    -182.67645645       3.74825492    -168.71468303
4
Lattice="4.75212489 0.0 0.0 0.0 4.75212489 0.0 0.0 0.0 4.75212489" Properties=species:S:1:pos:R:3:forces:R:3 energy=2.5756124199999997 stress="-0.25799434528860155 0.08953746936986887 -0.1005809360016346 0.08953746936986887 -0.3745984174455881 0.0340310687486971 -0.1005809360016346 0.0340310687486971 -0.13542321538911326" free_energy=2.57523546 pbc="T T T"
Al       4.71083867       1.17987420       0.57963901     -10.00894755      34.84707059      -3.97739004
Al       0.45494496       0.06690612       3.12680451       0.74853584       0.02968928       1.72433135
Al       3.60882604       4.54140631       0.04672142     -12.14368074      -9.90743418      -4.02401010
Al       0.78449864       4.71498223       0.97296193      21.40409246     -24.96932569       6.27706879
4
Lattice="4.69396059 0.0 0.0 0.0 4.69396059 0.0 0.0 0.0 4.69396059" Properties=species:S:1:pos:R:3:forces:R:3 energy=10.54399487 stress="-0.23366783154223394 0.28068956342369317 0.03656590806495933 0.28068956342369317 -0.4538043512249958 -0.1054107639866018 0.03656590806495933 -0.1054107639866018 -0.2977120933594889" free_energy=10.54378591 pbc="T T T"
Al       1.06315644       3.59318308       1.77679350     -15.91494945      30.01494407      -7.76493614
Al       3.28330968       0.11132732       3.23968307      -6.92489386      15.17981980      23.83930103
Al       1.85673000       2.41143358       2.07047715      19.66006966     -31.54112101       7.98315193
Al       3.62108976       3.97799519       1.96529751       3.17977365     -13.65364286     -24.05751682
4
Lattice="4.74436283 0.0 0.0 0.0 4.74436283 0.0 0.0 0.0 4.74436283" Properties=species:S:1:pos:R:3:forces:R:3 energy=18.83156997 stress="-0.4318777171985557 -0.17206170794225586 0.31955750282659473 -0.17206170794225586 -0.17077594633316973 0.14685664409615132 0.31955750282659473 0.14685664409615132 -0.20357456994169618" free_energy=18.83135944 pbc="T T T"
Al       1.47689619       0.48627181       2.43929498     -51.38806448     -33.99342584      36.07680129
Al       2.32694131       0.92612154       1.84597213      54.03367427      28.66241421     -37.90187085
Al       0.47304775       2.20022383       2.94897586      -2.90332631       5.20479618       2.19249200
Al       0.17656355       3.25713574       0.71092806       0.25771651       0.12621545      -0.36742243
4
Lattice="4.74436283 0.0 0.0 0.0 4.74436283 0.0 0.0 0.0 4.74436283" Properties=species:S:1:pos:R:3:forces:R:3 energy=18.83156997 stress="-0.4318777171985557 -0.17206170794225586 0.31955750282659473 -0.17206170794225586 -0.17077594633316973 0.14685664409615132 0.31955750282659473 0.14685664409615132 -0.20357456994169618" free_energy=18.83135944 pbc="T T T"
Al       1.47689619       0.48627181       2.43929498     -51.38806448     -33.99342584      36.07680129
Al       2.32694131       0.92612154       1.84597213      54.03367427      28.66241421     -37.90187085
Al       0.47304775       2.20022383       2.94897586      -2.90332631       5.20479618       2.19249200
Al       0.17656355       3.25713574       0.71092806       0.25771651       0.12621545      -0.36742243
4
Lattice="4.75837066 0.0 0.0 0.0 4.75837066 0.0 0.0 0.0 4.75837066" Properties=species:S:1:pos:R:3:forces:R:3 energy=-6.88005655 stress="-0.21483742339725947 -0.08346992653857606 0.005412494357625818 -0.08346992653857606 -0.10972253595375894 0.04322937574473937 0.005412494357625818 0.04322937574473937 -0.05781595717814634" free_energy=-6.88037116 pbc="T T T"
Al       1.19214053       3.63799397       1.83395399      -3.84026376       0.10122532      -5.32760901
Al       1.15433880       2.24293400       3.60533308     -14.06619960      -5.68334252       5.74670636
Al       2.46440718       0.48344775       2.67012263       2.56937342       2.11079603       0.01834022
Al       2.79152998       2.92316555       3.25042834      15.33708995       3.47132117      -0.43743757
4
Lattice="4.75837066 0.0 0.0 0.0 4.75837066 0.0 0.0 0.0 4.75837066" Properties=species:S:1:pos:R:3:forces:R:3 energy=-6.88005655 stress="-0.21483742339725947 -0.08346992653857606 0.005412494357625818 -0.08346992653857606 -0.10972253595375894 0.04322937574473937 0.005412494357625818 0.04322937574473937 -0.05781595717814634" free_energy=-6.88037116 pbc="T T T"
Al       1.19214053       3.63799397       1.83395399      -3.84026376       0.10122532      -5.32760901
Al       1.15433880       2.24293400       3.60533308     -14.06619960      -5.68334252       5.74670636
Al       2.46440718       0.48344775       2.67012263       2.56937342       2.11079603       0.01834022
Al       2.79152998       2.92316555       3.25042834      15.33708995       3.47132117      -0.43743757
4
Lattice="4.59639671 0.0 0.0 0.0 4.59639671 0.0 0.0 0.0 4.59639671" Properties=species:S:1:pos:R:3:forces:R:3 energy=16.42554546 stress="-0.22551830155877906 0.185100457171769 0.3194908542258015 0.185100457171769 -0.2975557094148306 -0.05773192939478449 0.3194908542258015 -0.05773192939478449 -0.540971445162658" free_energy=16.42554546 pbc="T T T"
Al       0.39195460       1.43396624       0.57241658     -36.71769899      32.99926232      41.66494127
Al       0.68280140       4.36987065       1.40411214       1.30085858      -8.77662976       3.99890239
Al       0.62063389       3.10992872       3.13790892      -0.31712714      -2.05091956       3.08388467
Al       1.06843356       1.00110035       4.28135113      35.73396755     -22.17171300     -48.74772833
4
Lattice="4.61323819 0.0 0.0 0.0 4.61323819 0.0 0.0 0.0 4.61323819" Properties=species:S:1:pos:R:3:forces:R:3 energy=81.11066235 stress="-0.8922175559060562 0.8772785258832309 -0.4401658866535372 0.8772785258832309 -0.9790672080564666 0.3313222049669794 -0.4401658866535372 0.3313222049669794 -0.3085040680553663" free_energy=81.11066235 pbc="T T T"
Al       1.50828937       4.12480708       4.40162167     -62.13910090      41.25489183     -24.19246734
Al       0.52028903       1.65154508       4.31070208     -67.44098512      59.70095113     -53.49691077
Al       2.22896160       3.46093442       4.59337658      66.04878603     -60.82283586      18.06078969
Al       1.12002014       1.12621632       0.17219608      63.53129999     -40.13300710      59.62858842
4
Lattice="4.66110397 0.0 0.0 0.0 4.66110397 0.0 0.0 0.0 4.66110397" Properties=species:S:1:pos:R:3:forces:R:3 energy=9.19535594 stress="-0.4752186073529304 -0.1937405219438339 -0.2933580241704648 -0.1937405219438339 -0.21543411970251616 -0.028243549133431474 -0.2933580241704648 -0.028243549133431474 -0.18336999574572746" free_energy=9.19514697 pbc="T T T"
Al       2.12770717       4.43879905       1.59198174      38.52406539       9.24694345      16.84346934
Al       0.97550301       4.03849691       1.03375535     -41.56446851     -13.96367768     -20.12971550
Al       3.44192343       4.55683554       3.64918618       2.01594394      -8.04158187       7.50911890
Al       3.13932004       1.36144331       2.46160922       1.02445918      12.75831611      -4.22287274
4
Lattice="4.55483352 0.0 0.0 0.0 4.55483352 0.0 0.0 0.0 4.55483352" Properties=species:S:1:pos:R:3:forces:R:3 energy=-4.0681247 stress="-0.1738145292252164 -0.08958075841122648 -0.11569850280766249 -0.08958075841122648 -0.0659567383321538 0.12345838902032742 -0.11569850280766249 0.12345838902032742 -0.314795117612042" free_energy=-4.06848618 pbc="T T T"
Al       4.32978448       0.51407609       4.50266528      -7.82428318       3.31488831     -19.15779298
Al       2.00876521       1.00633786       1.47042465       9.39012381       3.17043285       1.96400785
Al       0.28751230       0.11012171       1.49535676      -2.08486748      -9.52319298      19.64323423
Al       1.38720069       2.15188250       4.15455962       0.51902684       3.03787182      -2.44944910
4