2
Lattice="2.27421965 0.4371972 0.55415503 0.0 2.31586191 0.55415503 0.0 0.0 2.38124005" Properties=species:S:1:pos:R:3:forces:R:3 energy=-13.58840551 stress="-0.3382984970154921 -0.09802413857567133 0.13211691027191902 -0.09802413857567133 -0.15526844448384552 -0.15515281534683595 0.13211691027191902 -0.15515281534683595 -0.9474518083106459" free_energy=-13.60366316 pbc="T T T"
C        1.95923616       1.47385945       1.58051002      -0.63809156       2.48093260      -7.86340857
C        1.73141887       0.93315663       2.68283396       0.63809156      -2.48093260       7.86340857
2
Lattice="2.27421965 0.4371972 0.55415503 0.0 2.31586191 0.55415503 0.0 0.0 2.38124005" Properties=species:S:1:pos:R:3:forces:R:3 energy=-13.32832128 stress="-0.7515326607304843 -0.08860192112222838 -0.004972045844747356 -0.08860192112222838 -0.785597299155147 -0.0060190173385408574 -0.004972045844747356 -0.0060190173385408574 -1.5035216331749885" free_energy=-13.36653909 pbc="T T T"
C        1.84531399       1.20352745       1.53636231      -0.00012374       0.00020658      -0.00008440
C        1.84534103       1.20348863       2.72698167       0.00012374      -0.00020658       0.00008440
2
Lattice="3.21730036 0.66856976 0.76545334 0.04917367 3.28566422 0.76545396 -0.05529575 -0.06693779 2.54928777" Properties=species:S:1:pos:R:3:forces:R:3 energy=-16.98789914 stress="3.541505927833846e-05 1.5269358997252446e-05 2.1675138401819827e-06 1.5269358997252446e-05 4.134741397419847e-05 2.6313203833263678e-06 2.1675138401819827e-06 2.6313203833263678e-06 1.676510545172474e-05" free_energy=-16.98789914 pbc="T T T"
C        2.60811365       1.72179376       1.84761123      -0.00072105       0.00058172      -0.00006161
C        2.58035273       1.68841559       3.12225442       0.00072105      -0.00058172       0.00006161
2
Lattice="2.19144503 0.72236421 1.18138081 0.0 2.30743177 1.18138081 0.0 0.0 2.59227737" Properties=species:S:1:pos:R:3:forces:R:3 energy=-16.60556463 stress="0.10121525280966079 -0.04700678782367613 -0.09397712147042708 -0.04700678782367613 0.31530188662830355 -0.08174483432706947 -0.09397712147042708 -0.08174483432706947 0.09968927055011488" free_energy=-16.60790043 pbc="T T T"
C        1.37466798       1.86980226       3.91580642      -2.52111355       3.99184878      -1.94373203
C        1.77381484       2.75575779       2.47876714       2.52111355      -3.99184878       1.94373203
2
Lattice="2.19144503 0.72236421 1.18138081 0.0 2.30743177 1.18138081 0.0 0.0 2.59227737" Properties=species:S:1:pos:R:3:forces:R:3 energy=-17.34643473 stress="0.3437282104547359 -0.05807406613107408 -0.09507674108609737 -0.05807406613107408 0.3053910908684257 -0.1314513847947918 -0.09507674108609737 -0.1314513847947918 0.17099974089822895" free_energy=-17.34643473 pbc="T T T"
C        1.30002815       1.93371246       3.87324905      -0.00306855      -0.00699429       0.00214715
C        1.84845469       2.69184758       2.52132451       0.00306855       0.00699429      -0.00214715
2
Lattice="2.10269966 0.74155849 1.21277249 0.04601215 2.22915648 1.21277258 0.04601225 0.0636144 2.53690856" Properties=species:S:1:pos:R:3:forces:R:3 energy=-17.59113505 stress="1.639688137933413e-05 -2.3337751602772607e-06 -2.3796190448068735e-06 -2.3337751602772607e-06 1.55633465600998e-05 -3.262567891790823e-06 -2.3796190448068735e-06 -3.262567891790823e-06 9.358768443714393e-06" free_energy=-17.59113505 pbc="T T T"
C        1.32030512       1.95331714       3.86182454      -0.00002662      -0.00003665      -0.00006092
C        1.82298933       2.64830647       2.56556426       0.00002662       0.00003665       0.00006092
2
Lattice="1.98551329 -1.48153986 -0.99974684 0.0 2.477342 -0.99974684 0.0 0.0 2.67146348" Properties=species:S:1:pos:R:3:forces:R:3 energy=-8.28924822 stress="-0.2439522561219488 0.23844165104546758 0.035248950631797914 0.23844165104546758 -1.835416682457685 -0.6760015796193549 0.035248950631797914 -0.6760015796193549 -0.8071287755492882" free_energy=-8.29591389 pbc="T T T"
C        1.37316161      -0.98816214      -0.40273897     -10.35212913      29.58766509      15.89292312
C        1.57956444       0.58007575       0.77562976      10.35212913     -29.58766509     -15.89292312
2
Lattice="1.98551329 -1.48153986 -0.99974684 0.0 2.477342 -0.99974684 0.0 0.0 2.67146348" Properties=species:S:1:pos:R:3:forces:R:3 energy=-15.16578894 stress="-0.3924500304941661 -0.2993374038815584 -0.2068953255194073 -0.2993374038815584 0.3799958226553096 0.5677983244167933 -0.2068953255194073 0.5677983244167933 -0.07866466460924157" free_energy=-15.18169548 pbc="T T T"
C        1.16469310      -0.75145231      -0.18789650      -0.00016257      -0.00024275       0.00758481
C        1.78803295       0.34336595       0.56078729       0.00016257       0.00024275      -0.00758481
2
Lattice="2.04192475 -1.1519205 -0.77236566 0.07732245 2.78085537 -1.8906931 0.08562811 -0.71287391 3.2864432" Properties=species:S:1:pos:R:3:forces:R:3 energy=-17.92080182 stress="5.60704162286076e-05 9.241162808009937e-05 -7.453298122673493e-05 9.241162808009937e-05 -5.979622892772148e-05 3.3230106661658763e-06 -7.453298122673493e-05 3.3230106661658763e-06 -2.1665401647583447e-06" free_energy=-17.93003042 pbc="T T T"
C        1.18889692      -0.69063827      -0.00644193      -0.00013025       0.00049055      -0.00011812
C        1.98657877       0.30311532       0.66673834       0.00013025      -0.00049055       0.00011812
2
Lattice="2.30780277 0.31251254 0.36536351 0.0 2.32886619 0.36536351 0.0 0.0 2.35735195" Properties=species:S:1:pos:R:3:forces:R:3 energy=-13.47410316 stress="-0.40490540730526686 -0.036122201609147336 -0.7558675492876098 -0.036122201609147336 -0.33118540285218473 -0.19688961541736164 -0.7558675492876098 -0.19688961541736164 -0.5971324045986229" free_energy=-13.48830548 pbc="T T T"
C        2.23531355       0.82233398       1.81335750      -2.51204241       1.20306225      -4.61934869
C        0.87815890       0.84324254       2.24426930       2.51204241      -1.20306225       4.61934869
2
Lattice="2.30780277 0.31251254 0.36536351 0.0 2.32886619 0.36536351 0.0 0.0 2.35735195" Properties=species:S:1:pos:R:3:forces:R:3 energy=-14.30891883 stress="-0.04768894893238977 0.04862359492619554 -0.7358319084829328 0.04862359492619554 -0.32228196635535383 -0.08746557391408417 -0.7358319084829328 -0.08746557391408417 -0.2723166806804026" free_energy=-14.32801446 pbc="T T T"
C        2.27783595       0.92882178       1.70068828       0.00043911      -0.00034913      -0.00058609
C        0.83563651       0.73675473       2.35693849      -0.00043911       0.00034913       0.00058609
2
Lattice="2.32150891 0.26166278 0.82187613 -0.10311432 3.14056763 0.37323693 0.452896 0.00862434 2.43478168" Properties=species:S:1:pos:R:3:forces:R:3 energy=-17.94753046 stress="6.734399229101521e-05 4.6505297251682385e-06 -8.705888488770539e-05 4.6505297251682385e-06 6.241051623264331e-05 -7.2503991440092804e-06 -8.705888488770539e-05 -7.2503991440092804e-06 4.1030551280404754e-05" free_energy=-17.96060987 pbc="T T T"
C        2.56136969       1.10655012       2.26328808      -0.00014715       0.00002404      -0.00016792
C        1.16287610       0.93632236       2.52510513       0.00014715      -0.00002404       0.00016792
2
Lattice="1.8231496 -1.8402704 -1.18277335 0.0 2.59045742 -1.18277335 0.0 0.0 2.84770477" Properties=species:S:1:pos:R:3:forces:R:3 energy=-13.75794625 stress="-0.09341002920469028 -0.16045009334965826 0.17537737698962186 -0.16045009334965826 0.3961065902603889 0.06762058415001933 0.17537737698962186 0.06762058415001933 0.24003235953347898" free_energy=-13.76295936 pbc="T T T"
C        0.50523419       1.90205604       1.10304538       0.45102296      -0.95452801       0.08128616
C        0.09610952       0.34493958       0.90842168      -0.45102296       0.95452801      -0.08128616
2
Lattice="1.8231496 -1.8402704 -1.18277335 0.0 2.59045742 -1.18277335 0.0 0.0 2.84770477" Properties=species:S:1:pos:R:3:forces:R:3 energy=-13.84609303 stress="-0.06567410893030053 -0.18799993256648576 0.1644643713053487 -0.18799993256648576 0.3137821988058809 0.06755380598797962 0.1644643713053487 0.06755380598797962 0.17038036932138964" free_energy=-13.85618755 pbc="T T T"
C        0.53043673       1.86013498       1.12630419       0.00016615       0.00053511      -0.00032267
C        0.07090696       0.38686066       0.88516286      -0.00016615      -0.00053511       0.00032267
2
Lattice="1.84200547 -1.5021061 -1.38214314 0.25133815 2.36360253 -1.38196905 -0.29840035 -0.12292013 2.97525184" Properties=species:S:1:pos:R:3:forces:R:3 energy=-14.47120109 stress="-9.256470109141167e-07 -1.323137519595992e-07 5.789299306694764e-06 -1.323137519595992e-07 -6.803993928307858e-07 2.379013618421663e-06 5.789299306694764e-06 2.379013618421663e-06 8.756406639484525e-06" free_energy=-14.47762727 pbc="T T T"
C        0.47523093       1.69762771       0.99889823       0.00002212      -0.00005455       0.00000143
C        0.02103865       0.25106281       0.89328000      -0.00002212       0.00005455      -0.00000143
2
Lattice="2.15255666 0.60854588 0.90126932 0.0 2.23692384 0.90126932 0.0 0.0 2.41166222" Properties=species:S:1:pos:R:3:forces:R:3 energy=-13.35615275 stress="-0.2919487443815283 0.09928018989602773 0.04577218370804978 0.09928018989602773 0.13403267436443672 -0.2737281060692407 0.04577218370804978 -0.2737281060692407 -0.1549031200667986" free_energy=-13.36438127 pbc="T T T"
C        0.15303339       0.55105815       1.17766681      -4.25150539       1.13900214       2.99369508
C        1.72328204       2.01493467       3.40333886       4.25150539      -1.13900214      -2.99369508
2
Lattice="2.15255666 0.60854588 0.90126932 0.0 2.23692384 0.90126932 0.0 0.0 2.41166222" Properties=species:S:1:pos:R:3:forces:R:3 energy=-12.74551346 stress="0.19204774464026433 -0.2201030942480721 -0.3260941104352932 -0.2201030942480721 0.06757104362560426 -0.4312272744842689 -0.3260941104352932 -0.4312272744842689 -0.2800125136553235" free_energy=-12.75784518 pbc="T T T"
C        0.48217543       0.68026373       1.39786980       0.00146695       0.00153606       0.00192746
C        1.39414000       1.88572910       3.18313584      -0.00146695      -0.00153606      -0.00192746
2
Lattice="1.93819805 1.23707023 1.77616584 0.1131061 2.30939021 2.25235144 0.55440356 -0.54560757 3.08321641" Properties=species:S:1:pos:R:3:forces:R:3 energy=-14.95250007 stress="-1.61403241467147e-05 5.927973156453639e-06 -2.2224397446406677e-05 5.927973156453639e-06 7.835091235903773e-07 1.7242786869655963e-05 -2.2224397446406677e-05 1.7242786869655963e-05 1.8716538245968644e-05" free_energy=-14.95905416 pbc="T T T"
C        0.50177048       1.03620785       2.32365214      -0.00013347      -0.00028520      -0.00034917
C        1.97458625       1.47047656       5.07791871       0.00013347       0.00028520       0.00034917
2
Lattice="2.26588772 0.46393575 0.59952489 0.0 2.31289506 0.59952489 0.0 0.0 2.3893333" Properties=species:S:1:pos:R:3:forces:R:3 energy=-14.48736181 stress="0.13720603898853248 -0.04106060756719288 -0.7620886061302837 -0.04106060756719288 -0.563144147902673 -0.411027947936962 -0.7620886061302837 -0.411027947936962 -0.42284394158224886" free_energy=-14.49292136 pbc="T T T"
C        0.30612363       2.05154343       2.59998334      -2.50074793       1.25665483      -4.53661295
C        1.07679688       2.46467839       1.16355412       2.50074793      -1.25665483       4.53661295
2
Lattice="2.26588772 0.46393575 0.59952489 0.0 2.31289506 0.59952489 0.0 0.0 2.3893333" Properties=species:S:1:pos:R:3:forces:R:3 energy=-15.09091932 stress="0.20242598539358242 0.1468206163016806 -0.663060547132158 0.1468206163016806 -0.6237328694641754 -0.17179837087034844 -0.663060547132158 -0.17179837087034844 -0.12769418923229867" free_energy=-15.11023051 pbc="T T T"
C        0.29075855       2.16395215       2.54471431       0.00411267       0.00198100       0.00648438
C        1.09216196       2.35226967       1.21882317      -0.00411267      -0.00198100      -0.00648438
2
Lattice="2.27135745 0.32262395 0.93205988 -0.21768274 3.09562913 0.52683502 0.3489949 -0.07097905 2.45052016" Properties=species:S:1:pos:R:3:forces:R:3 energy=-17.94233375 stress="-7.606371133985779e-06 -5.149188855271555e-06 2.3339998546057926e-06 -5.149188855271555e-06 -3.0285112995702005e-06 -4.324248594103565e-06 2.3339998546057926e-06 -4.324248594103565e-06 -8.68251965445232e-06" free_energy=-17.95508206 pbc="T T T"
C        0.40057948       2.81888515       2.60858678       0.00008153      -0.00005985       0.00008847
C        0.92327752       2.97531813       1.28377559      -0.00008153       0.00005985      -0.00008847
2
Lattice="2.02505138 0.55112553 0.79982937 0.0 2.09870732 0.79982937 0.0 0.0 2.24595179" Properties=species:S:1:pos:R:3:forces:R:3 energy=-10.30903967 stress="-3.8488241411804784 0.046792075022644104 0.09660374613550222 0.046792075022644104 -0.5614231839189249 -0.24426759394640646 0.09660374613550222 -0.24426759394640646 -0.8494549567889937" free_energy=-10.31270653 pbc="T T T"
C        1.03716617       0.66493329       1.90527818     -33.35621115       3.25902023       0.12371623
C        0.07596158       2.04486971       1.82392013      33.35621115      -3.25902023      -0.12371623
2
Lattice="2.02505138 0.55112553 0.79982937 0.0 2.09870732 0.79982937 0.0 0.0 2.24595179" Properties=species:S:1:pos:R:3:forces:R:3 energy=-15.83438324 stress="-0.42307267564018125 -0.4128584981222066 -0.599160761340202 -0.4128584981222066 -0.6478063112366195 -0.7840099325084348 -0.599160761340202 -0.7840099325084348 -1.2453914519447218" free_energy=-15.83438324 pbc="T T T"
C        0.82713527       0.65961285       1.97853547       0.00136808       0.00040648      -0.00020423
C        0.28599246       2.05019015       1.75066282      -0.00136808      -0.00040648       0.00020423
2
Lattice="2.16863224 0.74787824 1.08536975 0.15214283 2.28891679 1.08536974 0.15214284 0.1990829 2.52537787" Properties=species:S:1:pos:R:3:forces:R:3 energy=-17.58068883 stress="-1.9145329922916824e-06 -1.6151153165048109e-07 -2.4984136879998096e-07 -1.6151153165048109e-07 -2.0000791163710383e-06 -3.6283765001497145e-07 -2.4984136879998096e-07 -3.6283765001497145e-07 -2.282757064682291e-06" free_energy=-17.58068883 pbc="T T T"
C        0.99667128       0.88322725       2.29873262      -0.00000526      -0.00000681      -0.00000983
C        0.53056227       2.36314528       2.21003054       0.00000526       0.00000681       0.00000983
2
Lattice="2.36280723 0.34900213 0.41484494 0.0 2.38844311 0.41484494 0.0 0.0 2.42420231" Properties=species:S:1:pos:R:3:forces:R:3 energy=-12.70397561 stress="0.3091725982886094 0.02500391043653906 -0.011468954908869435 0.02500391043653906 -0.05419436048607707 -0.26809995930755753 -0.011468954908869435 -0.26809995930755753 -0.2520192940890528" free_energy=-12.71808522 pbc="T T T"
C        1.26865606       2.52933365       1.59656624      -3.91042857      -2.19907018      -2.82024045
C        0.69816526       1.76488066       2.77834168       3.91042857       2.19907018       2.82024045
2
Lattice="2.36280723 0.34900213 0.41484494 0.0 2.38844311 0.41484494 0.0 0.0 2.42420231" Properties=species:S:1:pos:R:3:forces:R:3 energy=-14.58676334 stress="0.1775757564405973 0.07487960196928621 -0.6295782937690961 0.07487960196928621 -0.29384474530337623 -0.08881077928783619 -0.6295782937690961 -0.08881077928783619 -0.032009010151697756" free_energy=-14.60073679 pbc="T T T"
C        1.41557041       2.20944726       1.49423519      -0.00092136       0.00039662       0.00069139
C        0.55125091       2.08476708       2.88067276       0.00092136      -0.00039662      -0.00069139
2
Lattice="2.28707317 0.72356691 0.62645308 0.10717856 3.33034262 0.34300828 0.5146985 0.60137611 2.34930047" Properties=species:S:1:pos:R:3:forces:R:3 energy=-17.9450586 stress="-1.586685866587325e-05 4.12755617211413e-05 2.411631745113529e-06 4.12755617211413e-05 4.99131986834694e-05 -9.069231701024706e-05 2.411631745113529e-06 -9.069231701024706e-05 4.7614650600698615e-05" free_energy=-17.94642881 pbc="T T T"
C        1.60183706       3.44166051       1.48270006      -0.00005181       0.00034533      -0.00015688
C        0.67480961       2.96897551       0.49561519       0.00005181      -0.00034533       0.00015688
2
Lattice="2.02901233 0.56392001 0.82746821 0.0 2.10591947 0.82746821 0.0 0.0 2.26265341" Properties=species:S:1:pos:R:3:forces:R:3 energy=-10.81049439 stress="-2.702784354584935 -1.298168510898296 -0.5339647303633904 -1.298168510898296 -1.2797275412908087 -0.15089270815803432 -0.5339647303633904 -0.15089270815803432 -1.6506500816804333" free_energy=-10.82122019 pbc="T T T"
C        1.92117931       0.54978250       0.81543758       4.71249631      12.38444259       4.27390137
C        1.03024075       2.04451657       1.27944564      -4.71249631     -12.38444259      -4.27390137
2
Lattice="2.02901233 0.56392001 0.82746821 0.0 2.10591947 0.82746821 0.0 0.0 2.26265341" Properties=species:S:1:pos:R:3:forces:R:3 energy=-11.97873778 stress="-0.2950249137351537 -0.15732200072557695 -0.230846573185747 -0.15732200072557695 -0.38247335920057385 -0.30375530108346965 -0.230846573185747 -0.30375530108346965 -0.6211792645139564" free_energy=-11.99052266 pbc="T T T"
C        1.98298013       0.91165638       0.48180646       0.00043495       0.00012097       0.00070069
C        0.96843996       1.68264272       1.61307678      -0.00043495      -0.00012097      -0.00070069
2
Lattice="2.14321082 0.65828527 0.96593445 0.06033889 2.24121586 0.96593552 0.06033857 0.07939705 2.43921586" Properties=species:S:1:pos:R:3:forces:R:3 energy=-12.45159619 stress="-6.516466327405794e-06 1.3623092308700353e-06 3.6193387949354354e-06 1.3623092308700353e-06 4.443661146699963e-06 -2.707535451262528e-06 3.6193387949354354e-06 -2.707535451262528e-06 8.023335151140412e-07" free_energy=-12.46412755 pbc="T T T"
C        2.15275209       1.08996661       3.04346615       0.00024276      -0.00068023       0.00017310
C        1.08112829       1.84178110       1.82384428      -0.00024276       0.00068023      -0.00017310
2
Lattice="2.19689272 0.57604151 0.82063078 0.0 2.27115862 0.82063078 0.0 0.0 2.41486984" Properties=species:S:1:pos:R:3:forces:R:3 energy=-10.08313437 stress="-0.7231942952902687 0.13637903691972286 -0.4762058466369553 0.13637903691972286 -0.933599656986082 0.9679208580110621 -0.4762058466369553 0.9679208580110621 -1.5711133408457238" free_energy=-10.0874141 pbc="T T T"
C        0.65934614       1.05650152       2.93799759       2.06291051     -15.22295674      28.63313907
C        0.47487025       1.68987868       2.08971210      -2.06291051      15.22295674     -28.63313907
2
Lattice="2.19689272 0.57604151 0.82063078 0.0 2.27115862 0.82063078 0.0 0.0 2.41486984" Properties=species:S:1:pos:R:3:forces:R:3 energy=-12.04968081 stress="0.1706833341529184 -0.12903418210332684 -0.18382189448810113 -0.12903418210332684 0.10301576139438823 -0.23823584258732433 -0.18382189448810113 -0.23823584258732433 -0.06914567000402456" free_energy=-12.08859175 pbc="T T T"
C        1.11650796       0.94963769       3.11790049       0.00060195       0.00071713       0.00118275
C        0.01770843       1.79674248       1.90980919      -0.00060195      -0.00071713      -0.00118275
2
Lattice="2.15828818 0.65568072 0.93408319 0.08682588 2.25401531 0.93408443 0.08682531 0.11252865 2.43729918" Properties=species:S:1:pos:R:3:forces:R:3 energy=-12.45554015 stress="-3.477850024560788e-06 1.903660283394394e-09 1.5403233126493517e-06 1.903660283394394e-09 7.577722607097975e-06 -5.616253466179651e-06 1.5403233126493517e-06 -5.616253466179651e-06 -9.132451322809866e-07" free_energy=-12.46806107 pbc="T T T"
C        1.12356139       0.98717822       0.79360701       0.00000138       0.00000053       0.00000391
C        0.13124282       1.84260985       2.01225700      -0.00000138      -0.00000053      -0.00000391
2
Lattice="2.27939883 0.62743986 0.91598418 0.0 2.36417846 0.91598418 0.0 0.0 2.53542242" Properties=species:S:1:pos:R:3:forces:R:3 energy=-15.03054408 stress="0.44189564336326637 0.33648551044316927 -0.3898572783118719 0.33648551044316927 -0.4409722508977957 -0.006887025123666067 -0.3898572783118719 -0.006887025123666067 0.1776741519595141" free_energy=-15.0336703 pbc="T T T"
C        0.77932803       2.20916937       1.15313028       1.30715770      -3.78992378      -1.28783353
C        1.67830989       2.15373451       2.24392335      -1.30715770       3.78992378       1.28783353
2
Lattice="2.27939883 0.62743986 0.91598418 0.0 2.36417846 0.91598418 0.0 0.0 2.53542242" Properties=species:S:1:pos:R:3:forces:R:3 energy=-16.41736378 stress="0.4243680650267544 -0.19685445476199526 -0.28747810431163173 -0.19685445476199526 0.31572627757944627 -0.37728598976695293 -0.28747810431163173 -0.37728598976695293 0.02356731500747162" free_energy=-16.41736378 pbc="T T T"
C        0.93774600       1.79955156       1.14089380      -0.00061494      -0.00575453      -0.00407219
C        1.51989193       2.56335229       2.25615983       0.00061494       0.00575453       0.00407219
2
Lattice="2.16550843 0.74796573 1.09193964 0.14643277 2.28636038 1.09194121 0.14643264 0.19218384 2.52642763" Properties=species:S:1:pos:R:3:forces:R:3 energy=-17.59010621 stress="-1.7212871316415605e-05 6.102679238396236e-06 1.1704427437367336e-05 6.102679238396236e-06 -5.986256368671137e-06 1.4827360286993899e-05 1.1704427437367336e-05 1.4827360286993899e-05 -2.0769245767289128e-07" free_energy=-17.59010621 pbc="T T T"
C        1.00259008       1.81958749       1.33997591       0.00008035       0.00010886       0.00015605
C        1.61724789       2.62629967       2.51767645      -0.00008035      -0.00010886      -0.00015605
2
Lattice="2.08788188 -0.41226095 -0.34999914 0.0 2.12819403 -0.34999914 0.0 0.0 2.15678214" Properties=species:S:1:pos:R:3:forces:R:3 energy=-9.327696 stress="-1.018373114616603 0.21138511990699996 -0.07893026800432014 0.21138511990699996 -0.9023184204486427 -0.10942918373285004 -0.07893026800432014 -0.10942918373285004 -1.691381441252647" free_energy=-9.33819573 pbc="T T T"
C        2.06493846       1.69544018      -0.56969143      -0.46908938      -4.09989810      -7.49489378
C        0.57336602       0.78112571       0.93014957       0.46908938       4.09989810       7.49489378
2
Lattice="2.08788188 -0.41226095 -0.34999914 0.0 2.12819403 -0.34999914 0.0 0.0 2.15678214" Properties=species:S:1:pos:R:3:forces:R:3 energy=-12.48097528 stress="-0.21704947026774143 -0.18993929646660837 -0.16034075991679833 -0.18993929646660837 -1.3530705806626635 1.234855836875285 -0.16034075991679833 1.234855836875285 -1.7606903035580734" free_energy=-12.48987616 pbc="T T T"
C        2.36364949       1.67540954      -0.75243168      -0.00741294       0.00185034      -0.00167949
C        0.27465499       0.80115634       1.11288984       0.00741294      -0.00185034       0.00167949
2
Lattice="3.00935279 -0.40447089 -0.34201025 0.04275599 2.33119218 -0.8327157 0.04272849 -0.44398282 2.43531375" Properties=species:S:1:pos:R:3:forces:R:3 energy=-17.90512021 stress="3.308442983866065e-05 9.42736262900785e-07 5.251829848695793e-05 9.42736262900785e-07 3.21223386559605e-05 -4.023963972699108e-05 5.251829848695793e-05 -4.023963972699108e-05 8.770899423674826e-06" free_energy=-17.9177101 pbc="T T T"
C        0.43959683      -0.39579939       2.27951720      -0.00007617       0.00021784       0.00043642
C        0.43961316       0.53069917       1.18850951       0.00007617      -0.00021784      -0.00043642
2
Lattice="2.05730162 0.72731178 1.25965754 0.0 2.18207983 1.25965754 0.0 0.0 2.51956534" Properties=species:S:1:pos:R:3:forces:R:3 energy=-10.08053991 stress="-1.2386274284973016 -1.0640348436421274 0.1303947783832248 -1.0640348436421274 -1.5363802737246883 0.3259097725313656 0.1303947783832248 0.3259097725313656 -0.7088391124275231" free_energy=-10.09337088 pbc="T T T"
C        0.11211699       1.73050118       2.81587567      20.09366661      17.44580259     -12.11003509
C        1.38608374       1.78928196       1.90003100     -20.09366661     -17.44580259      12.11003509
2
Lattice="2.05730162 0.72731178 1.25965754 0.0 2.18207983 1.25965754 0.0 0.0 2.51956534" Properties=species:S:1:pos:R:3:forces:R:3 energy=-13.72744903 stress="-0.0003022622310879747 -0.12337058515515197 0.21437027676043843 -0.12337058515515197 -0.665741055138732 -0.48497033775965587 0.21437027676043843 -0.48497033775965587 -0.105311931093933" free_energy=-13.74239276 pbc="T T T"
C        0.23488007       1.87502618       2.84446489      -0.00086649      -0.00682337       0.00030946
C        1.26332066       1.64475693       1.87144180       0.00086649       0.00682337      -0.00030946
2
Lattice="1.92582542 1.43251628 1.4994864 -0.00117782 3.4467663 1.98769224 -0.09270843 0.71889398 2.73563002" Properties=species:S:1:pos:R:3:forces:R:3 energy=-15.69489993 stress="3.52597018746861e-05 -4.998111878577726e-05 0.0001261232796538383 -4.998111878577726e-05 9.367600179127519e-06 -0.00010448550292564598 0.0001261232796538383 -0.00010448550292564598 3.2620304978550846e-05" free_energy=-15.69489994 pbc="T T T"
C        0.15756266       3.24420424       3.48256352      -0.00021671      -0.00047270      -0.00055547
C        1.16702155       3.11347088       2.58335221       0.00021671       0.00047270       0.00055547
2
Lattice="2.18465816 0.27948323 0.32353828 0.0 2.20246275 0.32353828 0.0 0.0 2.22609954" Properties=species:S:1:pos:R:3:forces:R:3 energy=-9.86963359 stress="-2.153893202459093 -0.8977062302044047 0.3363459877856183 -0.8977062302044047 -0.7923194153189831 0.17869962044324447 0.3363459877856183 0.17869962044324447 -0.7080184226652774" free_energy=-9.88619089 pbc="T T T"
C        2.04755808       2.11873172       1.58146294      17.98688643       4.67108210      -3.78838317
C        1.12292504       1.61479707       2.07217265     -17.98688643      -4.67108210       3.78838317
2
Lattice="2.18465816 0.27948323 0.32353828 0.0 2.20246275 0.32353828 0.0 0.0 2.22609954" Properties=species:S:1:pos:R:3:forces:R:3 energy=-10.40339703 stress="-0.4471054197459926 -0.26323955912514085 -0.3895655747606326 -0.26323955912514085 -0.4239113656151536 -0.3435487449973905 -0.3895655747606326 -0.3435487449973905 -0.6383358434411128" free_energy=-10.4447835 pbc="T T T"
C        2.26665140       1.36029318       1.42188620      -0.00214401       0.00234937       0.00191808
C        0.90383173       2.37323561       2.23174939       0.00214401      -0.00234937      -0.00191808
2
Lattice="2.40239564 0.54601537 0.93831912 0.31868126 2.14625392 0.68152826 0.53712964 0.30718191 2.56264807" Properties=species:S:1:pos:R:3:forces:R:3 energy=-13.93288853 stress="-4.999268430218752e-05 2.206096977145455e-05 -4.459302368569427e-06 2.206096977145455e-05 1.3847555701394493e-05 -2.1721987169318706e-05 -4.459302368569427e-06 -2.1721987169318706e-05 6.78950426487212e-05" free_energy=-13.94585404 pbc="T T T"
C        0.46685471       1.09735320       1.41920475      -0.00006322       0.00006651       0.00004419
C        1.43039706       0.61769730       2.45518135       0.00006322      -0.00006651      -0.00004419
2
Lattice="2.27619439 -0.09743844 -0.09352076 0.0 2.27827899 -0.09352076 0.0 0.0 2.28019764" Properties=species:S:1:pos:R:3:forces:R:3 energy=-11.43177625 stress="-0.6897155619511085 0.39824591004292853 -0.006015292468309621 0.39824591004292853 -0.4561323530142976 0.11890214449944869 -0.006015292468309621 0.11890214449944869 0.08317753609677439" free_energy=-11.44740311 pbc="T T T"
C        1.66421290       1.75014554       2.10991751      -0.05794953       1.81719057       4.37468985
C        0.70061778       0.40980750       0.40751975       0.05794953      -1.81719057      -4.37468985
2
Lattice="2.27619439 -0.09743844 -0.09352076 0.0 2.27827899 -0.09352076 0.0 0.0 2.28019764" Properties=species:S:1:pos:R:3:forces:R:3 energy=-12.81730052 stress="-0.5457462802031171 0.8026220567354818 -0.07525309944904672 0.8026220567354818 -0.6132097587839175 -0.0722616600797674 -0.07525309944904672 -0.0722616600797674 -0.04883425343014468" free_energy=-12.82928452 pbc="T T T"
C        1.65240154       1.72792104       2.35211041       0.00432053       0.00152666      -0.00111544
C        0.71242913       0.43203200       0.16532684      -0.00432053      -0.00152666       0.00111544
2
Lattice="2.41473939 0.01744661 -0.04744012 0.12038983 2.41177995 -0.04866166 0.04275285 0.0416131 2.16460826" Properties=species:S:1:pos:R:3:forces:R:3 energy=-12.53840918 stress="4.3548862899497885e-05 4.6467561087507294e-05 1.0383087472399599e-05 4.6467561087507294e-05 5.659467178763617e-05 0.0001043993201676358 1.0383087472399599e-05 0.0001043993201676358 -8.810750211141766e-05" free_energy=-12.55229049 pbc="T T T"
C        1.88903664       1.88273714       0.12992432       0.00009043       0.00027459       0.00068509
C        0.74723087       0.53687068       0.17805588      -0.00009043      -0.00027459      -0.00068509
2
Lattice="2.24636814 0.15681225 0.16902378 0.0 2.25183479 0.16902378 0.0 0.0 2.25816938" Properties=species:S:1:pos:R:3:forces:R:3 energy=-8.56718701 stress="-1.0434460623106854 0.025637575655978517 0.29351216072869063 0.025637575655978517 -1.0974496652447971 -1.2705077384998877 0.29351216072869063 -1.2705077384998877 -3.414547951079427" free_energy=-8.57485412 pbc="T T T"
C        1.58736698       1.35810953       1.17412036      -2.20925858       7.97584096      36.29711473
C        1.69387536       1.00893712       0.21859517       2.20925858      -7.97584096     -36.29711473
2