6
Lattice="1.595000029 -2.762620926 0.0 1.595000029 2.762620926 0.0 0.0 0.0 13.100000381" Properties=species:S:1:pos:R:3:forces:R:3 stress="0.012751584147944148 -4.512611098013596e-05 -0.00046572268644603105 -4.512611098013596e-05 0.01281075365445752 -0.00020623194453743462 -0.00046572268644603105 -0.00020623194453743462 0.0190826277222382" free_energy=-40.94002857 energy=-40.93648336 pbc="T T T"
Mo       0.69321000      -0.08518000      12.69614000      -0.00590100      -0.00329500      -0.00140900
Mo       2.25813000      -1.02319000       3.60085000       0.00657800       0.00329900      -0.00345200
S        2.25626000       0.81737000       5.11000000       0.00492300       0.00251600      -0.00570400
S        2.29060000       0.83670000      11.12771000      -0.01485200      -0.00651500       0.00794700
S        2.29280000       0.83760000       9.19344000       0.00605000       0.00352900      -0.00195900
S        2.29015000      -1.00467000       1.17083000       0.00320300       0.00046600       0.00457800
6
Lattice="1.595000029 -2.762620926 0.0 1.595000029 2.762620926 0.0 0.0 0.0 13.100000381" Properties=species:S:1:pos:R:3:forces:R:3 stress="-0.013879917926212196 0.024112428990949862 0.0015112940537048687 0.024112428990949862 0.0009099933060264014 -0.0012579387152670154 0.0015112940537048687 -0.0012579387152670154 0.010273705024968494" free_energy=-39.8571131 energy=-39.85105975 pbc="T T T"
Mo       0.05941000       0.05172000      12.64294000      -0.00004500      -0.01149700       0.00407200
Mo       0.91806000      -1.39237000       1.68570000      -0.00415900      -0.00167800      -0.00376400
S        1.71782000      -0.85674000      11.10653000      -0.00104000      -0.00841200      -0.00335200
S        1.56325000       1.92603000       7.90461000      -0.00214300      -0.00230100       0.01228000
S        1.90463000      -0.12354000       6.67238000      -0.00477700       0.01739400      -0.00843700
S        2.44749000      -0.48811000       3.22467000       0.01216400       0.00649400      -0.00079900
6
Lattice="1.595000029 -2.762620926 0.0 1.595000029 2.762620926 0.0 0.0 0.0 13.100000381" Properties=species:S:1:pos:R:3:forces:R:3 stress="0.018723010690932185 0.0005827884316110974 0.00010139331574997354 0.0005827884316110974 0.01802021676335773 8.200718840498014e-05 0.00010139331574997354 8.200718840498014e-05 0.014111490397800719" free_energy=-44.99658413 energy=-44.99704239 pbc="T T T"
Mo       3.07343000       0.18587000      12.21763000      -0.00102000       0.00175300      -0.01356400
Mo       0.67099000      -1.15849000       5.63211000       0.00104200      -0.00127200       0.01708000
S        1.47907000      -0.73448000       0.66919000      -0.00331000      -0.00054100      -0.00703300
S        0.67124000       0.68348000       4.08049000       0.00345500      -0.00166700       0.00646700
S        1.47857000      -0.73496000      10.66515000       0.00102800       0.00335300       0.00622900
S        0.67162000       0.68348000       7.18475000      -0.00119500      -0.00162600      -0.00917800
6
Lattice="1.595000029 -2.762620926 0.0 1.595000029 2.762620926 0.0 0.0 0.0 13.100000381" Properties=species:S:1:pos:R:3:forces:R:3 stress="0.004345850457188247 -9.29423123935276e-05 0.00019168922827412664 -9.29423123935276e-05 0.0029294710327606847 -0.003286784947199249 0.00019168922827412664 -0.003286784947199249 0.009792940301529085" free_energy=-44.24109016 energy=-44.24260602 pbc="T T T"
Mo       2.74553000       0.20752000       0.62951000       0.00673400       0.00215000       0.00245500
Mo       1.27418000      -1.36506000       7.12759000       0.00262800       0.00567600      -0.01061500
S        1.27408000       0.47979000       5.57737000       0.00249200       0.00577600      -0.01288200
S        1.27425000       0.47485000       8.67734000       0.00262300       0.00580300      -0.00713900
S        1.15097000       1.13040000      12.17808000      -0.00692100      -0.01034700       0.01420500
S        1.15104000      -0.71475000       2.18087000      -0.00755600      -0.00905900       0.01397500
6
Lattice="1.595000029 -2.762620926 0.0 1.595000029 2.762620926 0.0 0.0 0.0 13.100000381" Properties=species:S:1:pos:R:3:forces:R:3 stress="0.0703890186237325 0.00030087194741320244 0.0007372345749310787 0.00030087194741320244 0.07119019745965825 -0.0011448363283968848 0.0007372345749310787 -0.0011448363283968848 0.0014286439898599226" free_energy=-41.44447238 energy=-41.44726319 pbc="T T T"
Mo       1.52133000      -2.46733000       0.30054000       0.00827700      -0.00995500      -0.01704400
Mo       1.54031000       1.18316000       4.30288000       0.00159100       0.01005600       0.02687500
S        1.53991000      -0.66038000       5.76916000       0.00035400       0.00944000      -0.07631800
S        1.52070000       1.21714000      11.84249000       0.00797600      -0.01023200       0.02148800
S        1.52126000       1.21592000       1.84969000       0.00839200      -0.01000500       0.03784100
S        1.71003000      -2.55756000       8.74166000      -0.02659100       0.01069500       0.00715900
6
Lattice="1.595000029 -2.762620926 0.0 1.595000029 2.762620926 0.0 0.0 0.0 13.100000381" Properties=species:S:1:pos:R:3:forces:R:3 stress="0.004419550196946676 0.00022001319668738483 0.0011755882438601118 0.00022001319668738483 0.004370772803127899 -0.00014257479296255127 0.0011755882438601118 -0.00014257479296255127 0.013468533818216106" free_energy=-44.26173069 energy=-44.26347401 pbc="T T T"
Mo       0.06983000       0.07610000       0.12957000       0.00588500       0.01212000      -0.00647300
Mo       1.95130000       1.56174000       6.61873000      -0.00657700      -0.01267900       0.00930800
S        1.95111000      -2.12193000       5.06607000      -0.00938500      -0.00902800       0.00673300
S        1.66378000       0.99729000      11.67749000       0.00597300       0.01216000      -0.00526900
S        1.95141000      -0.28029000       8.17168000      -0.00170000      -0.01465000       0.00403400
S        1.66562000       0.99690000       1.68155000       0.00580400       0.01207800      -0.00833300
6
Lattice="1.595000029 -2.762620926 0.0 1.595000029 2.762620926 0.0 0.0 0.0 13.100000381" Properties=species:S:1:pos:R:3:forces:R:3 stress="0.018812251788414065 -3.272423234700592e-05 0.00016119945619418692 -3.272423234700592e-05 0.018850262578990695 -5.725336321172713e-05 0.00016119945619418692 -5.725336321172713e-05 0.015581403246000979" free_energy=-45.00692663 energy=-45.00739652 pbc="T T T"
Mo       1.69285000       2.56633000       0.10221000      -0.00951000      -0.00632600       0.01612000
Mo       1.42578000      -1.29897000       6.66067000       0.00992700       0.00599200      -0.00306400
S        1.69232000      -1.11692000      11.65019000      -0.00536900      -0.00841800      -0.00537000
S        1.42582000       2.38451000       8.21301000       0.00980400       0.00611100      -0.00018500
S        1.69334000      -1.11746000       1.65526000      -0.01467900      -0.00328900      -0.00796300
S        1.42579000       2.38454000       5.10812000       0.00982800       0.00593000       0.00046200
6
Lattice="1.595000029 -2.762620926 0.0 1.595000029 2.762620926 0.0 0.0 0.0 13.100000381" Properties=species:S:1:pos:R:3:forces:R:3 stress="0.02667978014724505 -4.706097880915976e-05 5.194808045472636e-05 -4.706097880915976e-05 0.02704437790283352 9.724271218126116e-05 5.194808045472636e-05 9.724271218126116e-05 0.01781390367920166" free_energy=-41.37504934 energy=-41.38695969 pbc="T T T"
Mo       1.62307000      -2.63595000       0.29655000       0.00041900       0.00288400      -0.01608700
Mo       1.62344000      -2.63555000       3.48069000      -0.00003400       0.00265400       0.01246900
S        1.62319000      -0.79422000       1.88891000       0.00111400       0.00354500      -0.00285700
S        1.62342000      -0.79387000       5.01387000       0.00060900       0.00310800       0.00588400
S        1.65332000       1.26538000       8.40632000      -0.00319300      -0.01562000       0.01013100
S        1.62294000      -0.79435000      11.86367000       0.00108500       0.00342800      -0.00954000
6
Lattice="1.595000029 -2.762620926 0.0 1.595000029 2.762620926 0.0 0.0 0.0 13.100000381" Properties=species:S:1:pos:R:3:forces:R:3 stress="0.07111083667112264 -9.077650872684612e-05 -0.0001616987769242576 -9.077650872684612e-05 0.07041694937707083 0.0008624704555419263 -0.0001616987769242576 0.0008624704555419263 0.0034656166666740566" free_energy=-41.44789624 energy=-41.45145622 pbc="T T T"
Mo       0.14608000      -0.15170000       0.62970000       0.00148700       0.00371300      -0.01687800
Mo       1.74888000      -1.09334000       9.72693000      -0.00340900       0.00863800       0.00973400
S        1.70911000      -0.89216000       5.07431000       0.00632900      -0.03108500      -0.00162100
S        1.74077000       0.76889000       2.09620000       0.00226400       0.00223000       0.03575400
S        0.15388000      -0.17258000      11.27606000      -0.00317800       0.00816100      -0.01921000
S        0.15415000      -0.17317000       8.16905000      -0.00349300       0.00834300      -0.00777900
6
Lattice="1.595000029 -2.762620926 0.0 1.595000029 2.762620926 0.0 0.0 0.0 13.100000381" Properties=species:S:1:pos:R:3:forces:R:3 stress="0.03543236698314454 -0.0004498754947754135 0.0013296349305960365 -0.0004498754947754135 0.03556830705190628 0.0011411039059396066 0.0013296349305960365 0.0011411039059396066 0.018996401273664122" free_energy=-40.30516717 energy=-40.30944076 pbc="T T T"
Mo       1.91589000       1.85004000       0.78997000       0.00939900      -0.01537100       0.00741900
Mo       2.18814000      -1.70787000      11.57989000      -0.00248400       0.00128500      -0.00281600
S        2.09665000       1.21026000       5.54176000      -0.00623200       0.01443300      -0.00512900
S        0.57660000      -0.79721000      10.05124000      -0.00299800       0.00102100       0.00136000
S        1.93269000      -1.82550000       2.31811000       0.00851900      -0.01569200       0.00283000
S        2.09643000      -1.56210000       6.83002000      -0.00620400       0.01432400      -0.00366200
6
Lattice="1.595000029 -2.762620926 0.0 1.595000029 2.762620926 0.0 0.0 0.0 13.100000381" Properties=species:S:1:pos:R:3:forces:R:3 stress="0.06307378268292355 -0.0006610507145405477 -0.0005385610979450887 -0.0006610507145405477 0.06223193417353354 0.0005534595802285721 -0.0005385610979450887 0.0005534595802285721 0.006805423233897685" free_energy=-40.89488714 energy=-40.89109327 pbc="T T T"
Mo       1.33771000       2.14784000      13.07075000      -0.00273600      -0.00001300       0.00807900
Mo       1.34151000      -1.54546000       9.09274000      -0.00303800       0.00473500      -0.01242200
S        1.33969000       0.30538000       1.53488000      -0.00310000      -0.00028000      -0.00555300
S        1.34217000       0.29544000       7.62869000      -0.00278500       0.00503300       0.01295200
S        1.18248000      -1.44564000       4.52445000       0.01507300      -0.00932400      -0.00090900
S        1.33950000      -1.53631000      11.48070000      -0.00341300      -0.00015000      -0.00214700
6
Lattice="1.595000029 -2.762620926 0.0 1.595000029 2.762620926 0.0 0.0 0.0 13.100000381" Properties=species:S:1:pos:R:3:forces:R:3 stress="0.04943366353732778 0.009964744081728148 0.0002795259862026817 0.009964744081728148 0.0384502365096551 -0.0004427289668262772 0.0002795259862026817 -0.0004427289668262772 0.00014194440054083706" free_energy=-40.89955628 energy=-40.9057515 pbc="T T T"
Mo       0.21081000       0.02593000      12.93135000       0.01060500      -0.00582800      -0.00652800
Mo       1.03685000      -1.34393000       1.93443000       0.00715100      -0.00741300       0.00746800
S        1.74243000       0.90692000      11.39041000       0.00540200      -0.00882600       0.00358500
S        1.10338000       0.53424000       3.47584000       0.01262600      -0.00425400      -0.00224000
S        1.98203000      -1.14597000       6.48334000      -0.01815600       0.01324600      -0.02859900
S        1.98252000      -1.14354000       8.39374000      -0.01762800       0.01307600       0.02631400
6
Lattice="1.595000029 -2.762620926 0.0 1.595000029 2.762620926 0.0 0.0 0.0 13.100000381" Properties=species:S:1:pos:R:3:forces:R:3 stress="0.02667978014724505 -4.706097880915976e-05 5.194808045472636e-05 -4.706097880915976e-05 0.02704437790283352 9.724271218126116e-05 5.194808045472636e-05 9.724271218126116e-05 0.017813928645238165" free_energy=-41.37504935 energy=-41.38695967 pbc="T T T"
Mo       1.62307000      -2.63595000       0.29655000       0.00041900       0.00288400      -0.01608700
Mo       1.62344000      -2.63555000       3.48069000      -0.00003400       0.00265500       0.01246900
S        1.62342000      -0.79387000       5.01387000       0.00060900       0.00310800       0.00588300
S        1.65332000       1.26538000       8.40632000      -0.00319300      -0.01562000       0.01013100
S        1.62319000      -0.79422000       1.88891000       0.00111400       0.00354500      -0.00285700
S        1.62294000      -0.79435000      11.86367000       0.00108500       0.00342800      -0.00954000
6
Lattice="1.595000029 -2.762620926 0.0 1.595000029 2.762620926 0.0 0.0 0.0 13.100000381" Properties=species:S:1:pos:R:3:forces:R:3 stress="0.07357306208921058 -1.7351395369955457e-05 6.755809477856039e-05 -1.7351395369955457e-05 0.07396731949616525 0.00030062228704816715 6.755809477856039e-05 0.00030062228704816715 0.011939114422009671" free_energy=-41.00854552 energy=-41.01257912 pbc="T T T"
Mo       0.30740000      -0.10646000       0.30095000      -0.00046200       0.00332900       0.00181700
Mo       1.90187000       0.81429000       9.74701000       0.00060000       0.00238700       0.00131100
S        1.90868000       0.96950000       4.97916000      -0.00008800      -0.01361900      -0.01111800
S        1.90247000      -1.02755000       1.80104000      -0.00060000       0.00336800      -0.00872300
S        1.90176000      -1.02755000       8.24591000       0.00089400       0.00216600       0.01026000
S        1.90220000      -1.02801000      11.57056000      -0.00034300       0.00236900       0.00645400
6
Lattice="1.595000029 -2.762620926 0.0 1.595000029 2.762620926 0.0 0.0 0.0 13.100000381" Properties=species:S:1:pos:R:3:forces:R:3 stress="0.004448036444597208 6.483679679967529e-05 -0.00031288061097140186 6.483679679967529e-05 0.0045265983199647 4.053236026348588e-05 -0.00031288061097140186 4.053236026348588e-05 0.014241282580073459" free_energy=-44.26513961 energy=-44.26688415 pbc="T T T"
Mo       2.87875000       0.19044000      12.11435000      -0.00022200      -0.01396100      -0.01348400
Mo       1.22556000      -1.24859000       5.46208000       0.00105800       0.01224400       0.00977800
S        2.82067000      -0.32765000       3.91006000       0.00163000       0.01224900       0.00947100
S        1.28410000       1.11089000      10.56093000      -0.00268600      -0.01235300      -0.00767300
S        1.28355000      -0.73057000       0.56726000      -0.00040300      -0.01032400      -0.00797600
S        2.82037000      -0.32746000       7.01429000       0.00062400       0.01214500       0.00988400
6
Lattice="1.595000029 -2.762620926 0.0 1.595000029 2.762620926 0.0 0.0 0.0 13.100000381" Properties=species:S:1:pos:R:3:forces:R:3 stress="0.0730404366664442 0.00023240883381138902 -0.0004624895847188236 0.00023240883381138902 0.07276342600841927 -0.00021647426101300906 -0.0004624895847188236 -0.00021647426101300906 0.012573176851089898" free_energy=-41.0082914 energy=-41.01147925 pbc="T T T"
Mo       1.59718000       2.69457000       0.41446000      -0.00248600      -0.00192200       0.00757000
Mo       1.59839000       0.85300000       9.86121000      -0.00344300      -0.00150100      -0.00398000
S        1.43296000       0.75592000       5.07463000       0.01461100       0.00857600      -0.00207400
S        1.59864000      -0.98867000       8.36105000      -0.00358500      -0.00132800      -0.00653000
S        1.59725000      -0.98878000       1.91291000      -0.00205600      -0.00206300       0.00632900
S        1.59847000      -0.98843000      11.68644000      -0.00304200      -0.00176200      -0.00131700
6
Lattice="1.595000029 -2.762620926 0.0 1.595000029 2.762620926 0.0 0.0 0.0 13.100000381" Properties=species:S:1:pos:R:3:forces:R:3 stress="0.018584873610958137 -0.00043686194824794694 -0.00030605864149681146 -0.00043686194824794694 0.018277416871417127 0.00019236331125972202 -0.00030605864149681146 0.00019236331125972202 0.014537847886189803" free_energy=-45.00066421 energy=-45.00112495 pbc="T T T"
Mo       0.12840000       0.04443000       0.26803000       0.01115800       0.00218800       0.00118600
Mo       2.20192000      -0.96601000       6.82561000      -0.01200100      -0.00543700      -0.00247200
S        2.20021000       0.87644000       8.37776000       0.00221900      -0.00935600      -0.00273000
S        1.72343000      -0.87631000       1.82003000       0.00894400       0.00348500       0.00146200
S        2.20235000       0.87489000       5.27327000      -0.01894900       0.00572100       0.00203900
S        1.72344000      -0.87628000      11.81603000       0.00862900       0.00340000       0.00051500
6
Lattice="1.595000029 -2.762620926 0.0 1.595000029 2.762620926 0.0 0.0 0.0 13.100000381" Properties=species:S:1:pos:R:3:forces:R:3 stress="0.003265233016187575 0.0004949391906642907 -0.0026951647801750273 0.0004949391906642907 0.003823829358426749 0.001139375007911737 -0.0026951647801750273 0.001139375007911737 0.009270463572601396" free_energy=-44.23690944 energy=-44.23847084 pbc="T T T"
Mo       2.82041000       0.12636000       0.52251000      -0.00868400      -0.00499900      -0.00980000
Mo       0.39471000       0.09589000       7.09021000       0.00487300       0.00712900       0.01075000
S        1.98785000      -0.82409000       8.64013000       0.01192400       0.00236800       0.01579800
S        1.99210000      -0.82598000       5.54045000       0.00931600       0.00545500       0.00720200
S        1.22375000      -0.79414000       2.07371000      -0.00862900      -0.00495000      -0.01377400
S        1.22669000       1.04680000      12.07103000      -0.00880100      -0.00500400      -0.01017600
6
Lattice="1.595000029 -2.762620926 0.0 1.595000029 2.762620926 0.0 0.0 0.0 13.100000381" Properties=species:S:1:pos:R:3:forces:R:3 stress="0.07380334256841005 2.724418733448042e-05 0.00012555419757626763 2.724418733448042e-05 0.07454915297688008 0.00032830962153058524 0.00012555419757626763 0.00032830962153058524 0.013405219949643147" free_energy=-41.00548195 energy=-41.01164402 pbc="T T T"
Mo       1.62681000      -2.69890000      13.09257000      -0.00271100       0.00440700      -0.01912100
Mo       1.62518000       0.98439000       9.43954000       0.00088500       0.00322700       0.01058000
S        1.59554000       1.18392000       4.66779000       0.00444100      -0.01821400       0.00581700
S        1.62637000      -0.85812000      11.26407000      -0.00125000       0.00299400       0.00405100
S        1.62493000      -0.85741000       7.93746000       0.00161700       0.00309200      -0.00015700
S        1.62709000      -0.85736000       1.49392000      -0.00298200       0.00449400      -0.00117100
6
Lattice="1.595000029 -2.762620926 0.0 1.595000029 2.762620926 0.0 0.0 0.0 13.100000381" Properties=species:S:1:pos:R:3:forces:R:3 stress="0.0747648096001976 -3.5046073741834494e-05 9.348532368747944e-05 -3.5046073741834494e-05 0.07448590776490752 -5.949406498791922e-05 9.348532368747944e-05 -5.949406498791922e-05 -0.0005482416785993337" free_energy=-41.36157942 energy=-41.36345754 pbc="T T T"
Mo       1.76819000      -2.02856000       0.11091000      -0.00094900       0.00314900       0.00876600
Mo       1.76383000      -0.18224000       9.19347000       0.00092700      -0.00007900      -0.01372100
S        1.76368000      -2.02450000       7.70997000       0.00142600       0.00463100      -0.02120100
S        1.76831000      -0.18720000       1.66585000      -0.00098300       0.00262500       0.01617800
S        1.76119000       1.76306000       4.71150000       0.00052800      -0.01402200       0.00275100
S        1.76824000      -0.18711000      11.65656000      -0.00094900       0.00369700       0.00722700
6
Lattice="1.595000029 -2.762620926 0.0 1.595000029 2.762620926 0.0 0.0 0.0 13.100000381" Properties=species:S:1:pos:R:3:forces:R:3 stress="0.00419312697038701 7.127803421758681e-06 2.398611957076936e-05 7.127803421758681e-06 0.004361092222473654 -0.0004958691755240472 2.398611957076936e-05 -0.0004958691755240472 0.012801778364334498" free_energy=-44.25848618 energy=-44.26021353 pbc="T T T"
Mo       1.56185000      -2.70366000      12.40710000       0.00103700       0.01310600      -0.00556500
Mo       1.56164000       1.68688000       5.77623000      -0.00025200      -0.01405500       0.00584500
S        1.56161000      -1.99663000       4.22376000       0.00057700      -0.01006100       0.00577100
S        1.56186000       0.98044000      10.85525000      -0.00029000       0.01469700      -0.00579400
S        1.56197000       0.97961000       0.85877000      -0.00034700       0.01362100      -0.00490600
S        1.56170000      -0.15529000       7.32889000      -0.00072500      -0.01730800       0.00464900
6
Lattice="1.595000029 -2.762620926 0.0 1.595000029 2.762620926 0.0 0.0 0.0 13.100000381" Properties=species:S:1:pos:R:3:forces:R:3 stress="0.07388852668496011 -0.0002348305393522317 -0.00039001942225819306 -0.0002348305393522317 0.07359943870677657 0.00021479529505814645 -0.00039001942225819306 0.00021479529505814645 0.01235803827302983" free_energy=-41.00780417 energy=-41.01173592 pbc="T T T"
Mo       1.60434000      -2.69239000      13.08584000      -0.00339700       0.00197800       0.00790200
Mo       1.60506000      -0.85098000       9.43114000      -0.00385500       0.00209400       0.00966200
S        1.43482000      -0.75294000       4.66761000       0.01512100      -0.00827400      -0.00974900
S        1.60520000       0.99070000       7.93045000      -0.00260500       0.00127600       0.00599300
S        1.60526000       0.99053000      11.25684000      -0.00277100       0.00156200       0.00371100
S        1.60442000       0.99103000       1.48660000      -0.00249400       0.00136400      -0.01751900
6
Lattice="1.595000029 -2.762620926 0.0 1.595000029 2.762620926 0.0 0.0 0.0 13.100000381" Properties=species:S:1:pos:R:3:forces:R:3 stress="0.01806129213491517 0.000168839063364268 -4.573777887447251e-05 0.000168839063364268 0.018807670520715664 2.338693469468457e-05 -4.573777887447251e-05 2.338693469468457e-05 0.014595263528638802" free_energy=-45.00054615 energy=-45.00100723 pbc="T T T"
Mo       0.22953000       0.30805000       0.26003000       0.01039100      -0.00741600       0.01493700
Mo       2.05050000       0.84366000       6.82069000      -0.01006100       0.00761800      -0.00494000
S        1.82471000       1.22893000       1.81268000       0.00952900      -0.00719000      -0.00627000
S        2.05019000      -0.99768000       5.26842000      -0.01022800       0.00767800       0.00023300
S        2.05008000      -0.99755000       8.37262000      -0.00979900       0.00745900       0.00000900
S        1.82472000       1.22903000      11.80834000       0.01016900      -0.00814900      -0.00397000
6
Lattice="1.595000029 -2.762620926 0.0 1.595000029 2.762620926 0.0 0.0 0.0 13.100000381" Properties=species:S:1:pos:R:3:forces:R:3 stress="0.03505491796026587 0.0006294249877996972 -0.0013932421500979127 0.0006294249877996972 0.03498217317140371 0.0005459510447501345 -0.0013932421500979127 0.0005459510447501345 0.019369144198661873" free_energy=-40.30646763 energy=-40.31051592 pbc="T T T"
Mo       1.63874000      -2.37338000      12.74177000       0.00049800       0.00694600       0.00741900
Mo       1.37097000      -0.37816000      10.43347000       0.00852200       0.00510200      -0.01248700
S        1.62172000      -0.52249000       1.17044000       0.00006600       0.00684600      -0.00582900
S        1.58376000      -2.56450000       4.38624000      -0.00789300      -0.01168900       0.00457800
S        1.38865000      -2.22722000       8.90474000       0.00831500       0.00490200       0.00324900
S        1.58406000       0.18802000       5.67413000      -0.00950800      -0.01210700       0.00307100
6
Lattice="1.595000029 -2.762620926 0.0 1.595000029 2.762620926 0.0 0.0 0.0 13.100000381" Properties=species:S:1:pos:R:3:forces:R:3 stress="-0.002007494029212588 -0.0045373025081155895 0.0004950016057555495 -0.0045373025081155895 -0.00628049983339265 0.000968126722024878 0.0004950016057555495 0.000968126722024878 0.018169501178630608" free_energy=-40.46120226 energy=-40.46062316 pbc="T T T"
Mo       0.12534000       0.21568000       1.60152000      -0.00472700       0.00159700       0.00880200
Mo       2.50911000      -1.15949000       3.67406000       0.00855500       0.00037300      -0.00233900
S        2.62474000      -0.53970000       8.38369000      -0.00240400      -0.00099200      -0.00550800
S        0.96875000      -0.26587000       5.20514000       0.00648800      -0.00695000      -0.00804700
S        1.77549000       1.10400000       0.06744000      -0.00543000       0.00879100       0.01357600
S        1.02991000      -0.53097000       9.66707000      -0.00248200      -0.00282000      -0.00648400
6
Lattice="1.595000029 -2.762620926 0.0 1.595000029 2.762620926 0.0 0.0 0.0 13.100000381" Properties=species:S:1:pos:R:3:forces:R:3 stress="0.004181992118106433 -6.328890253645623e-06 -2.6900904332556844e-05 -6.328890253645623e-06 0.004349401875880875 -0.00048449714589668787 -2.6900904332556844e-05 -0.00048449714589668787 0.012819023654049317" free_energy=-44.25839064 energy=-44.26011311 pbc="T T T"
Mo       3.14278000       0.05830000      12.40734000       0.00081300       0.01305900      -0.00551200
Mo       1.54249000       1.68755000       5.77600000       0.00009100      -0.01404700       0.00590200
S        1.54254000      -1.99601000       4.22353000      -0.00028600      -0.01001200       0.00550600
S        1.54782000       0.97977000      10.85547000      -0.00030000       0.01478100      -0.00574000
S        1.54786000       0.97895000       0.85902000      -0.00053100       0.01356100      -0.00498300
S        1.54246000      -0.15458000       7.32864000       0.00021300      -0.01734200       0.00482600
6
Lattice="1.595000029 -2.762620926 0.0 1.595000029 2.762620926 0.0 0.0 0.0 13.100000381" Properties=species:S:1:pos:R:3:forces:R:3 stress="0.013671339174243432 2.053456502415592e-06 -0.0002753566581065917 2.053456502415592e-06 0.013633372074230682 8.646986742998666e-05 -0.0002753566581065917 8.646986742998666e-05 0.016117411566713584" free_energy=-41.57941654 energy=-41.58047647 pbc="T T T"
Mo       2.56443000       0.11134000       1.29697000      -0.00253700       0.00104000      -0.00124300
Mo       0.96196000      -0.80736000       5.29172000       0.00519900      -0.00184900       0.00189100
S        2.55822000       0.11280000       8.70202000      -0.00234800       0.00055200       0.00244300
S        0.96886000      -0.80927000       2.86657000       0.00023100      -0.00034000       0.00740700
S        2.55695000       0.11343000       6.76181000       0.00404800      -0.00151000      -0.01769500
S        0.96992000      -0.80973000      12.85163000      -0.00459300       0.00210600       0.00719700
6
Lattice="1.595000029 -2.762620926 0.0 1.595000029 2.762620926 0.0 0.0 0.0 13.100000381" Properties=species:S:1:pos:R:3:forces:R:3 stress="0.027529798792080836 -5.265961249507705e-05 -2.6651243967521515e-05 -5.265961249507705e-05 0.027866921424497173 -3.591988501945815e-05 -2.6651243967521515e-05 -3.591988501945815e-05 0.018349918241423385" free_energy=-41.375584 energy=-41.3881325 pbc="T T T"
Mo       1.64403000      -2.63299000       0.25949000       0.00185900       0.00288500       0.01643000
Mo       1.64402000      -2.63312000       3.44708000       0.00009700       0.00246400      -0.01021500
S        1.64413000      -0.79126000      11.82645000       0.00019500       0.00240400      -0.00795200
S        1.69393000       1.24001000       8.41194000      -0.00571200      -0.01479600      -0.00519300
S        1.64394000      -0.79148000       4.98034000       0.00135900       0.00317700       0.00470500
S        1.64387000      -0.79155000       1.85315000       0.00220200       0.00386600       0.00222500
6
Lattice="1.595000029 -2.762620926 0.0 1.595000029 2.762620926 0.0 0.0 0.0 13.100000381" Properties=species:S:1:pos:R:3:forces:R:3 stress="0.004366409988248906 -2.3617870532342248e-05 0.0003892579581448353 -2.3617870532342248e-05 0.004723848732869989 0.00048709361369305543 0.0003892579581448353 0.00048709361369305543 0.014717952873526289" free_energy=-44.26936862 energy=-44.27112711 pbc="T T T"
Mo       0.03708000       0.01762000       0.43411000      -0.00372800       0.00964900       0.00130300
Mo       1.49124000      -0.47238000       6.99734000       0.00500900      -0.00978200       0.00587300
S        1.49112000      -2.31391000       5.44434000       0.00267900      -0.01382400      -0.01016400
S        1.63173000      -0.90372000      11.98190000      -0.00370500       0.00972800       0.00126000
S        1.63232000      -0.90290000       1.98680000      -0.00374200       0.00962100       0.00217900
S        1.49165000       1.36881000       8.55062000       0.00348700      -0.00539300      -0.00045200
6