16
Lattice="5.86361191 -2.6e-07 -2.6e-07 0.0 9.74917035 -4.3e-07 0.0 0.0 5.56969681" Properties=species:S:1:pos:R:3:forces:R:3 energy=-73.89346606 stress="-0.05031732949626124 0.023370273341839044 -0.0257594759430408 0.023370273341839044 -0.07285672587814608 -0.0016532144993336806 -0.0257594759430408 -0.0016532144993336806 -0.12849989918539698" free_energy=-73.98421704 pbc="T T T"
Sc       1.81914144       3.92943949       3.25031473       0.83471620       1.83761534       0.89703826
Sc       0.97726867       3.24972337       0.46414120      -0.87587926      -0.63468827       1.08536262
Sc       2.44317165       6.49944682       1.85656519       0.66725410      -0.17220424      -1.12643871
Sc       5.37497760       0.81243059       1.39242393      -1.54315078      -1.73955526      -0.51670148
S        3.90907463       8.93673935       2.78484784      -0.74833372      -1.39083444      -0.32276478
S        3.90907463       8.12430842       0.46414085      -0.91679498      -2.42604908       1.33771716
S        4.88634324      -0.00000022       4.64141377       2.97222939       2.69179309       0.09914147
S        0.97726867       6.49944689       3.71313090       1.16350496       1.21684521       2.94569042
S        0.48863431       4.87458515       1.85656535      -4.46421049       3.03428388      -3.36699000
S        1.46590298       1.62486169       2.32070689       0.08632505       0.47696536      -1.56546235
S        2.44317165      -0.00000011       4.17727250      -1.12440659      -0.49373708       0.08315477
S        2.44317165       2.43729248       4.64141377       4.28687308      -2.71608464       2.23323899
Li       3.42044026       6.49944678       4.17727217       0.57102059       0.40137708       1.12442167
Li       5.37497760       2.43729235       4.17727226      -0.95385787      -0.91832769      -0.76925449
Li       0.97726867       8.12430855       0.46414098      -0.39357610       0.44377535      -1.38206535
Li       3.90907463       3.24972324       1.85656527       0.43828640       0.38882539      -0.75608821
16
Lattice="5.86361191 -2.6e-07 -2.6e-07 0.0 9.74917035 -4.3e-07 0.0 0.0 5.56969681" Properties=species:S:1:pos:R:3:forces:R:3 energy=-73.89346606 stress="-0.05031732949626124 0.023370273341839044 -0.0257594759430408 0.023370273341839044 -0.07285672587814608 -0.0016532144993336806 -0.0257594759430408 -0.0016532144993336806 -0.12849989918539698" free_energy=-73.98421704 pbc="T T T"
Sc       1.81914144       3.92943949       3.25031473       0.83471620       1.83761534       0.89703826
Sc       0.97726867       3.24972337       0.46414120      -0.87587926      -0.63468827       1.08536262
Sc       2.44317165       6.49944682       1.85656519       0.66725410      -0.17220424      -1.12643871
Sc       5.37497760       0.81243059       1.39242393      -1.54315078      -1.73955526      -0.51670148
S        3.90907463       8.93673935       2.78484784      -0.74833372      -1.39083444      -0.32276478
S        3.90907463       8.12430842       0.46414085      -0.91679498      -2.42604908       1.33771716
S        4.88634324      -0.00000022       4.64141377       2.97222939       2.69179309       0.09914147
S        0.97726867       6.49944689       3.71313090       1.16350496       1.21684521       2.94569042
S        0.48863431       4.87458515       1.85656535      -4.46421049       3.03428388      -3.36699000
S        1.46590298       1.62486169       2.32070689       0.08632505       0.47696536      -1.56546235
S        2.44317165      -0.00000011       4.17727250      -1.12440659      -0.49373708       0.08315477
S        2.44317165       2.43729248       4.64141377       4.28687308      -2.71608464       2.23323899
Li       3.42044026       6.49944678       4.17727217       0.57102059       0.40137708       1.12442167
Li       5.37497760       2.43729235       4.17727226      -0.95385787      -0.91832769      -0.76925449
Li       0.97726867       8.12430855       0.46414098      -0.39357610       0.44377535      -1.38206535
Li       3.90907463       3.24972324       1.85656527       0.43828640       0.38882539      -0.75608821
16
Lattice="5.86361191 -2.6e-07 -2.6e-07 0.0 9.74917035 -4.3e-07 0.0 0.0 5.56969681" Properties=species:S:1:pos:R:3:forces:R:3 energy=-73.89346606 stress="-0.05031732949626124 0.023370273341839044 -0.0257594759430408 0.023370273341839044 -0.07285672587814608 -0.0016532144993336806 -0.0257594759430408 -0.0016532144993336806 -0.12849989918539698" free_energy=-73.98421704 pbc="T T T"
Sc       1.81914144       3.92943949       3.25031473       0.83471620       1.83761534       0.89703826
Sc       0.97726867       3.24972337       0.46414120      -0.87587926      -0.63468827       1.08536262
Sc       2.44317165       6.49944682       1.85656519       0.66725410      -0.17220424      -1.12643871
Sc       5.37497760       0.81243059       1.39242393      -1.54315078      -1.73955526      -0.51670148
S        3.90907463       8.93673935       2.78484784      -0.74833372      -1.39083444      -0.32276478
S        3.90907463       8.12430842       0.46414085      -0.91679498      -2.42604908       1.33771716
S        4.88634324      -0.00000022       4.64141377       2.97222939       2.69179309       0.09914147
S        0.97726867       6.49944689       3.71313090       1.16350496       1.21684521       2.94569042
S        0.48863431       4.87458515       1.85656535      -4.46421049       3.03428388      -3.36699000
S        1.46590298       1.62486169       2.32070689       0.08632505       0.47696536      -1.56546235
S        2.44317165      -0.00000011       4.17727250      -1.12440659      -0.49373708       0.08315477
S        2.44317165       2.43729248       4.64141377       4.28687308      -2.71608464       2.23323899
Li       3.42044026       6.49944678       4.17727217       0.57102059       0.40137708       1.12442167
Li       5.37497760       2.43729235       4.17727226      -0.95385787      -0.91832769      -0.76925449
Li       0.97726867       8.12430855       0.46414098      -0.39357610       0.44377535      -1.38206535
Li       3.90907463       3.24972324       1.85656527       0.43828640       0.38882539      -0.75608821
12
Lattice="4.35495586 -2.51433528 -2.2e-07 0.0 5.02867005 -2.2e-07 0.0 0.0 7.59447827" Properties=species:S:1:pos:R:3:forces:R:3 energy=67.91947666 stress="-1.774585990213945 -0.19830312529548552 0.10386615594659412 -0.19830312529548552 -1.5765740645364934 0.019995245301984127 0.10386615594659412 0.019995245301984127 -0.9468826072761528" free_energy=67.8745021 pbc="T T T"
Li       2.85080658      -0.54541055       2.92325947      -7.76816615       1.62238732      -7.82579108
Li       2.33296327       1.54120582       3.02725456      -2.04995195      -0.43487323      -2.41637928
Li       0.15696907       0.16111637       4.24605972      26.18314416      31.19244815      -4.95266092
S        0.43549559       2.76576855       4.55668711      43.15047737       4.27782465      25.96603119
S        2.61297352       3.01720218       4.55668716     -24.30302419     -10.56429767      23.57574212
S        2.17747793       0.25143363       4.55668747     -38.49972208      19.87872567       6.53952648
S        0.87099117       4.02293609       3.03779152      43.01860985      22.20931680     -12.85529812
S        0.43549559       1.76003454       3.03779143      27.29639017     -12.05785649     -14.93734028
S        3.91946027       1.76003474       4.55668758     -21.07808759     -21.81415510      38.27053673
Sc       3.48396469      -2.01146782       3.03779174      -5.39412324      -9.89665051     -34.74528168
Sc       3.48396469      -0.50286681       4.55668748       7.92403656     -18.65905094      13.21905890
Sc       3.91946027       0.75430073       3.03779189     -48.47958292      -5.75381865     -29.83814406
12
Lattice="4.35495586 -2.51433528 -2.2e-07 0.0 5.02867005 -2.2e-07 0.0 0.0 7.59447827" Properties=species:S:1:pos:R:3:forces:R:3 energy=-25.46705972 stress="-0.7670365346963876 0.06352060473781194 -0.005773971470998512 0.06352060473781194 -0.7780898390824903 -0.005946977153643908 -0.005773971470998512 -0.005946977153643908 -0.01386269121122854" free_energy=-25.59786584 pbc="T T T"
Li       2.44528703      -0.27181221       1.69235747       0.02440600      -0.01114418       0.00165911
Li       2.45712572       1.40081502       1.68130150       0.02802303      -0.00718795      -0.00161738
Li       0.82946466      -0.24192690       3.96608514       0.06229305       0.00117740      -0.01290302
S        1.04060255       3.10066640       6.28334386      -0.04656948       0.01084240       0.01320765
S        2.69582355       2.69601667       6.26252190      -0.04278647       0.00809672       0.01438676
S        1.44261985       0.56231302       5.96102418      -0.04247250       0.01155886      -0.01905960
S        0.70936639       4.61052654       1.68631825       0.02105045      -0.00505073       0.00236172
S        0.73628629       1.60869695       1.66301989       0.02202661      -0.01029511      -0.00792593
S        3.86849993       1.45975996       6.26231643      -0.03767948       0.01179722       0.01554565
Sc       2.94268910       3.09969903       1.70144855       0.02429746      -0.01128732      -0.01449810
Sc       3.68743524      -0.59737788       6.29677002      -0.04031307       0.01067654       0.02001405
Sc       3.82482225       0.57558097       1.67466971       0.02772440      -0.00918384      -0.01117091
16
Lattice="4.18088369 0.0 0.0 0.0 4.18088369 0.0 0.0 0.0 9.14091542" Properties=species:S:1:pos:R:3:forces:R:3 energy=-61.64041981 stress="-1.0030027414690386 -5.30528275700077e-10 -2.6457757184619132e-08 -5.30528275700077e-10 -1.0030013084185432 -2.7568745809026352e-08 -2.6457757184619132e-08 -2.7568745809026352e-08 -0.8393588388267162" free_energy=-61.65673657 pbc="T T T"
Li       0.00000000       0.00000000       0.00000000      -0.00000470       0.00000474      -0.00000014
Li       0.00000000       2.09044184       2.28522886       0.00000479      -0.00000479       0.00000016
Li       2.09044184       2.09044184       4.57045771      -0.00000474       0.00000482       0.00000005
Li       2.09044184       0.00000000       6.85568657       0.00000467      -0.00000482      -0.00000003
Sc       2.09044184       0.00000000       2.28522886      -0.00000001      -0.00000002      -0.00000281
Sc       2.09044184       2.09044184       0.00000000      -0.00000002       0.00000001       0.00000278
Sc       0.00000000       2.09044184       6.85568657       0.00000000      -0.00000004      -0.00000280
Sc       0.00000000       0.00000000       4.57045771      -0.00000002       0.00000000       0.00000281
S        0.00000000       0.00000000       2.45921731       0.00000009       0.00000156      -5.40220386
S        2.09044184       0.00000000       0.17398846       0.00000155       0.00000009      -5.40220815
S        2.09044184       2.09044184       2.11124040      -0.00000158      -0.00000004       5.40220813
S        2.09044184       0.00000000       4.39646925      -0.00000008      -0.00000152       5.40220391
S        2.09044184       2.09044184       7.02967502       0.00000010       0.00000152      -5.40220389
S        0.00000000       2.09044184       4.74444617       0.00000158       0.00000007      -5.40220809
S        0.00000000       0.00000000       6.68169811      -0.00000158      -0.00000006       5.40220806
S        0.00000000       2.09044184       8.96692696      -0.00000006      -0.00000153       5.40220388
16
Lattice="4.18088369 0.0 0.0 0.0 4.18088369 0.0 0.0 0.0 9.14091542" Properties=species:S:1:pos:R:3:forces:R:3 energy=-67.99848071 stress="-0.9691535048830493 -2.1221131028003078e-10 -3.648162084078764e-08 -2.1221131028003078e-10 -0.9691535053199548 -3.799830755837728e-08 -3.648162084078764e-08 -3.799830755837728e-08 -0.403868552349057" free_energy=-68.04933826 pbc="T T T"
Li      -0.00000008       0.00000008       0.00000000       0.00000190      -0.00000193       0.00000028
Li       0.00000008       2.09044176       2.28522886      -0.00000177       0.00000187      -0.00000004
Li       2.09044176       2.09044193       4.57045771       0.00000179      -0.00000183       0.00000009
Li       2.09044193      -0.00000008       6.85568657      -0.00000177       0.00000185      -0.00000002
Sc       2.09044184       0.00000000       2.28522886      -0.00000042       0.00000039       0.00000002
Sc       2.09044184       2.09044184       0.00000000       0.00000051      -0.00000041       0.00000010
Sc       0.00000000       2.09044184       6.85568657      -0.00000050       0.00000047      -0.00000013
Sc       0.00000000       0.00000004       4.57045771       0.00000039      -0.00000042      -0.00000011
S        0.00000000      -0.00000004       2.20459382       0.00000013      -0.00000256      -0.00620703
S        2.09044180       0.00000000      -0.08063503      -0.00000265       0.00000024      -0.00620707
S        2.09044189       2.09044184       2.36586389       0.00000266      -0.00000029       0.00620692
S        2.09044184       0.00000004       4.65109274      -0.00000020       0.00000242       0.00620718
S        2.09044184       2.09044180       6.77505144       0.00000024      -0.00000245      -0.00620679
S       -0.00000004       2.09044184       4.48982268      -0.00000261       0.00000031      -0.00620747
S        0.00000004       0.00000000       6.93632169       0.00000259      -0.00000031       0.00620650
S        0.00000000       2.09044189       9.22155045      -0.00000029       0.00000265       0.00620755
16
Lattice="5.03229512 -0.0 -5.2e-07 1e-08 5.03229397 -5.1e-07 -1e-06 -9.9e-07 10.28130394" Properties=species:S:1:pos:R:3:forces:R:3 energy=-97.90592503 stress="3.4119958617735937e-06 6.99049022098925e-10 -1.9161433016461603e-09 6.99049022098925e-10 3.4132753711443998e-06 -1.310716916435484e-09 -1.9161433016461603e-09 -1.310716916435484e-09 6.334732306187451e-06" free_energy=-97.90664278 pbc="T T T"
Li       5.03229548      -0.00000235      10.28130352       0.00000038      -0.00000036       0.00000003
Li      -0.00000160       2.51614810       2.57032563      -0.00000034       0.00000038      -0.00000002
Li       2.51614842       2.51614513       5.14065156       0.00000038      -0.00000035       0.00000002
Li       2.51614546       5.03229459       7.71097708      -0.00000036       0.00000036      -0.00000003
Sc       2.51614722       5.03229382       2.57032532       0.00000005      -0.00000003       0.00000002
Sc       2.51614667       2.51614589      10.28130332      -0.00000004       0.00000003       0.00000001
Sc      -0.00000085       2.51614634       7.71097780       0.00000003      -0.00000003      -0.00000001
Sc       5.03229472      -0.00000060       5.14065135      -0.00000005       0.00000003      -0.00000001
S       -0.00000045       5.03229452       2.61769329       0.00000007      -0.00000010      -0.00007018
S        2.51614736      -0.00000120      10.32867150      -0.00000011       0.00000009      -0.00007025
S        2.51614651       2.51614694       2.52295765       0.00000008      -0.00000008       0.00007035
S        2.51614727      -0.00000130       5.09328389      -0.00000007       0.00000006       0.00007008
S        2.51614661       2.51614704       7.75834526       0.00000009      -0.00000009      -0.00007021
S        5.03229543       2.51614628       5.18801901      -0.00000011       0.00000009      -0.00007025
S       -0.00000154       5.03229343       7.66360963       0.00000010      -0.00000009       0.00007036
S        5.03229533       2.51614618      -0.04736859      -0.00000010       0.00000008       0.00007007
4
Lattice="3.27992818 -1.4e-07 -1.4e-07 0.0 3.27992818 -1.4e-07 0.0 0.0 4.73442175" Properties=species:S:1:pos:R:3:forces:R:3 energy=0.75179268 stress="-1.212504408502726 -0.11428875592290756 -0.1103965512002558 -0.11428875592290756 -1.4008542661727996 0.027549060869431957 -0.1103965512002558 0.027549060869431957 -0.7333821819365298" free_energy=0.72256091 pbc="T T T"
Li       2.42929140       2.63361865       0.79338410      -1.89916651      -0.36175933      -7.03030835
S        0.46334453       2.06526390       1.95534964      -6.49250932      -4.00011879     -15.85968243
S        2.45532501       0.57585341       2.20920283       7.19270919       9.59809621     -10.60835399
Sc       1.96795691       2.29594981       2.84065325       1.19896663      -5.23621809      33.49834476
4
Lattice="3.78587169 -1.7e-07 -1.7e-07 0.0 3.78587169 -1.7e-07 0.0 0.0 3.78587169" Properties=species:S:1:pos:R:3:forces:R:3 energy=-8.83415632 stress="-0.7331718520979682 0.2699235435504365 0.06343598122112856 0.2699235435504365 -0.8808651924875224 -0.14581896634051797 0.06343598122112856 -0.14581896634051797 -0.08294299674878891" free_energy=-8.85684092 pbc="T T T"
Li       1.64274227       2.26879261       1.03166417      -1.70852825       0.22526931      -3.20810549
S        3.22699393       2.38436501       2.36175799      -6.79652099      15.41528562       7.23197904
S        0.07223072       0.94886547       1.92038375       2.70440950     -11.25558313      -1.53006168
Sc       1.89293585       0.37858724       1.51434876       5.80063974      -4.38497180      -2.49381187
4
Lattice="3.78587169 -1.7e-07 -1.7e-07 0.0 3.78587169 -1.7e-07 0.0 0.0 3.78587169" Properties=species:S:1:pos:R:3:forces:R:3 energy=-16.62145955 stress="-0.09613216853900557 -0.08413297232030115 -0.00022543141331050936 -0.08413297232030115 -0.6337168538279048 6.863227722365228e-05 -0.00022543141331050936 6.863227722365228e-05 -0.0032564388921084426" free_energy=-16.65849333 pbc="T T T"
Li       1.70534397       1.97031762      -0.58599245      -0.00147113      -0.00074784      -0.00858316
S        3.40349702       2.92803201       3.08004746      -0.00387669      -0.00024618       0.00449418
S        0.01118407       1.00515586       3.08035855      -0.00379186       0.00027764       0.00662470
Sc       1.71487771       0.07710488       1.25374115       0.00913968       0.00071638      -0.00253572
4
Lattice="3.78587169 -1.7e-07 -1.7e-07 0.0 3.78587169 -1.7e-07 0.0 0.0 3.78587169" Properties=species:S:1:pos:R:3:forces:R:3 energy=-16.62145955 stress="-0.09613216853900557 -0.08413297232030115 -0.00022543141331050936 -0.08413297232030115 -0.6337168538279048 6.863227722365228e-05 -0.00022543141331050936 6.863227722365228e-05 -0.0032564388921084426" free_energy=-16.65849333 pbc="T T T"
Li       1.70534397       1.97031762      -0.58599245      -0.00147113      -0.00074784      -0.00858316
S        3.40349702       2.92803201       3.08004746      -0.00387669      -0.00024618       0.00449418
S        0.01118407       1.00515586       3.08035855      -0.00379186       0.00027764       0.00662470
Sc       1.71487771       0.07710488       1.25374115       0.00913968       0.00071638      -0.00253572
4
Lattice="3.76139288 -1.6e-07 -1.6e-07 0.0 5.5272946 -2.4e-07 0.0 0.0 3.70957922" Properties=species:S:1:pos:R:3:forces:R:3 energy=-15.22163177 stress="-0.41289164298857806 0.13611512444308912 -0.009048901170933876 0.13611512444308912 -0.25007716276619885 -0.04837424272319029 -0.009048901170933876 -0.04837424272319029 -0.03503556225403636" free_energy=-15.24401145 pbc="T T T"
Sc       0.49967325       4.40288107       2.18426517      -9.28478478       9.61288442      -0.12993352
Li       2.27864872       1.43656798       1.70969308       0.13327023      -3.60476071      -0.34348130
S        2.02854434       3.25895311       2.24274241       9.46642441      -2.59250625       3.45028273
S        0.37613929       2.21091788       1.48383180      -0.31490986      -3.41561745      -2.97686791
4
Lattice="3.76139288 -1.6e-07 -1.6e-07 0.0 5.5272946 -2.4e-07 0.0 0.0 3.70957922" Properties=species:S:1:pos:R:3:forces:R:3 energy=-22.53486356 stress="-0.12961333443144948 -3.0868943759337124e-06 -2.2889923322990485e-06 -3.0868943759337124e-06 -0.01925253005788961 -0.010366719264513189 -2.2889923322990485e-06 -0.010366719264513189 -0.02550296677004164" free_energy=-22.53486763 pbc="T T T"
Sc       0.35544422       5.21611486       3.04156085       0.00021872       0.00116340      -0.00160014
Li       2.23600585       0.60445777       1.30704152       0.00033186       0.00173500       0.00033566
S        2.23617932       4.04903405       2.18539798      -0.00009106      -0.00286089      -0.00380049
S        0.35537621       1.43971337       1.08653211      -0.00045951      -0.00003751       0.00506497
4
Lattice="3.76139288 -1.6e-07 -1.6e-07 0.0 5.5272946 -2.4e-07 0.0 0.0 3.70957922" Properties=species:S:1:pos:R:3:forces:R:3 energy=-22.53486356 stress="-0.12961333443144948 -3.0868943759337124e-06 -2.2889923322990485e-06 -3.0868943759337124e-06 -0.01925253005788961 -0.010366719264513189 -2.2889923322990485e-06 -0.010366719264513189 -0.02550296677004164" free_energy=-22.53486763 pbc="T T T"
Sc       0.35544422       5.21611486       3.04156085       0.00021872       0.00116340      -0.00160014
Li       2.23600585       0.60445777       1.30704152       0.00033186       0.00173500       0.00033566
S        2.23617932       4.04903405       2.18539798      -0.00009106      -0.00286089      -0.00380049
S        0.35537621       1.43971337       1.08653211      -0.00045951      -0.00003751       0.00506497
4
Lattice="4.32192883 -1.9e-07 -1.9e-07 0.0 3.76539748 -1.6e-07 0.0 0.0 3.39704775" Properties=species:S:1:pos:R:3:forces:R:3 energy=-13.93413836 stress="-0.29627961780704076 -0.11889499057531124 0.014147955403744212 -0.11889499057531124 -0.5870334546389606 -0.041610735660785894 0.014147955403744212 -0.041610735660785894 -0.08790424200527694" free_energy=-13.94815301 pbc="T T T"
Li       2.34081820       1.81506664       2.14815150       0.59662973      -0.01248667       2.34473560
S        0.39672407       2.47076336       2.09834995      -1.55390998       3.50902546       1.47424410
S        0.13007696       0.74247557       1.32667589       8.07411052       1.15398075      -1.26458152
Sc       2.59315730       0.00000011       1.35881922      -7.11683027      -4.65051955      -2.55439818
4
Lattice="4.32192883 -1.9e-07 -1.9e-07 0.0 3.76539748 -1.6e-07 0.0 0.0 3.39704775" Properties=species:S:1:pos:R:3:forces:R:3 energy=-18.23682462 stress="0.14004394462326186 4.617791761501155e-05 -2.6972119951683175e-06 4.617791761501155e-05 -0.23954774356173159 7.6136487336265595e-06 -2.6972119951683175e-06 7.6136487336265595e-06 -0.1936675160164714" free_energy=-18.30994296 pbc="T T T"
Li       2.44376663       1.35758398       2.58080967      -0.00387541      -0.00751405       0.00126271
S        0.28674299       3.02547054       2.58346028      -0.00303718       0.00806198      -0.00171639
S        0.28571360       1.16952348       0.88510195       0.00416645       0.00605444      -0.00224157
Sc       2.44455335      -0.52427236       0.88262467       0.00274613      -0.00660236       0.00269525
4
Lattice="4.32192883 -1.9e-07 -1.9e-07 0.0 3.76539748 -1.6e-07 0.0 0.0 3.39704775" Properties=species:S:1:pos:R:3:forces:R:3 energy=-18.23682462 stress="0.14004394462326186 4.617791761501155e-05 -2.6972119951683175e-06 4.617791761501155e-05 -0.23954774356173159 7.6136487336265595e-06 -2.6972119951683175e-06 7.6136487336265595e-06 -0.1936675160164714" free_energy=-18.30994296 pbc="T T T"
Li       2.44376663       1.35758398       2.58080967      -0.00387541      -0.00751405       0.00126271
S        0.28674299       3.02547054       2.58346028      -0.00303718       0.00806198      -0.00171639
S        0.28571360       1.16952348       0.88510195       0.00416645       0.00605444      -0.00224157
Sc       2.44455335      -0.52427236       0.88262467       0.00274613      -0.00660236       0.00269525
4
Lattice="3.66509166 -2.11604194 -1.8e-07 0.0 4.23208345 -1.8e-07 0.0 0.0 3.13522677" Properties=species:S:1:pos:R:3:forces:R:3 energy=-11.92648294 stress="-0.7943705696844482 0.038237286335766264 -0.004828368058533588 0.038237286335766264 -0.8851566121854123 -0.018431778342424307 -0.004828368058533588 -0.018431778342424307 -0.18982901000523703" free_energy=-11.9462829 pbc="T T T"
Li       3.17535101      -1.71579861       2.03345290      -3.65057499      -5.14274103       3.04882407
S        1.06140560       1.33517925       1.57225652       4.50697467       6.39772869       1.48179766
S        2.97778754      -0.02417259       1.60029640       3.27977303       8.44690261       0.81434493
Sc       1.09952750      -0.63481246       1.25409109      -4.13617271      -9.70189027      -5.34496666
4
Lattice="3.66509166 -2.11604194 -1.8e-07 0.0 4.23208345 -1.8e-07 0.0 0.0 3.13522677" Properties=species:S:1:pos:R:3:forces:R:3 energy=-18.52991129 stress="-0.3474496547777862 0.11849870691235093 9.197238187536535e-06 0.11849870691235093 -0.21061891004345382 1.66842654255263e-05 9.197238187536535e-06 1.66842654255263e-05 -0.15590810476642303" free_energy=-18.57369542 pbc="T T T"
Li       2.99502263      -1.84634102       2.02945209       0.00134300      -0.00368063      -0.00303459
S        1.16259867       1.32734606       1.99610177      -0.00263031      -0.00181621       0.00295247
S        2.99439389       0.26950364       1.99588127       0.00338147      -0.00212363       0.00219105
Sc       1.16205645      -0.79011308       0.43866178      -0.00209415       0.00762047      -0.00210893
4
Lattice="3.66509166 -2.11604194 -1.8e-07 0.0 4.23208345 -1.8e-07 0.0 0.0 3.13522677" Properties=species:S:1:pos:R:3:forces:R:3 energy=-18.52991129 stress="-0.3474496547777862 0.11849870691235093 9.197238187536535e-06 0.11849870691235093 -0.21061891004345382 1.66842654255263e-05 9.197238187536535e-06 1.66842654255263e-05 -0.15590810476642303" free_energy=-18.57369542 pbc="T T T"
Li       2.99502263      -1.84634102       2.02945209       0.00134300      -0.00368063      -0.00303459
S        1.16259867       1.32734606       1.99610177      -0.00263031      -0.00181621       0.00295247
S        2.99439389       0.26950364       1.99588127       0.00338147      -0.00212363       0.00219105
Sc       1.16205645      -0.79011308       0.43866178      -0.00209415       0.00762047      -0.00210893
4
Lattice="3.50667025 1.03091743 1.56146372 0.0 3.65506867 1.56146372 0.0 0.0 3.97463155" Properties=species:S:1:pos:R:3:forces:R:3 energy=-16.87625359 stress="-0.3521500529063269 -0.023078772508574607 0.08794437668778646 -0.023078772508574607 -0.4365979397644198 -0.08204686574090847 0.08794437668778646 -0.08204686574090847 -0.24694817823046344" free_energy=-16.89348285 pbc="T T T"
Li       0.88159689       1.63425969       4.27155182       0.53419707       1.68415154       0.58194868
S        2.91287031       1.33299118       1.68157960       3.11507054      -3.45615055      -2.38589628
S        0.94611548       0.99052363       2.34025847      -2.14750264      -2.85802072       1.86818153
Sc       1.75333512       3.07400678       2.27121962      -1.50176497       4.63001972      -0.06423394
4
Lattice="3.50667025 1.03091743 1.56146372 0.0 3.65506867 1.56146372 0.0 0.0 3.97463155" Properties=species:S:1:pos:R:3:forces:R:3 energy=-18.50446724 stress="-0.32914133322996997 -0.07304894604663552 0.09811470953901963 -0.07304894604663552 -0.18203138063790678 -0.005099405111728866 0.09811470953901963 -0.005099405111728866 -0.277899193447025" free_energy=-18.56321343 pbc="T T T"
Li       0.67578080       1.95898844       4.33128450      -0.00289553       0.00161063      -0.00208660
S        2.98664420       1.25575546       1.36832261       0.00268310       0.00158776       0.00716022
S        1.18307066       0.72521996       2.61106440       0.00028153       0.00235998      -0.00365320
Sc       1.64842218       3.09181744       2.25393802      -0.00006910      -0.00555837      -0.00142041
4
Lattice="3.50667025 1.03091743 1.56146372 0.0 3.65506867 1.56146372 0.0 0.0 3.97463155" Properties=species:S:1:pos:R:3:forces:R:3 energy=-18.50446724 stress="-0.32914133322996997 -0.07304894604663552 0.09811470953901963 -0.07304894604663552 -0.18203138063790678 -0.005099405111728866 0.09811470953901963 -0.005099405111728866 -0.277899193447025" free_energy=-18.56321343 pbc="T T T"
Li       0.67578080       1.95898844       4.33128450      -0.00289553       0.00161063      -0.00208660
S        2.98664420       1.25575546       1.36832261       0.00268310       0.00158776       0.00716022
S        1.18307066       0.72521996       2.61106440       0.00028153       0.00235998      -0.00365320
Sc       1.64842218       3.09181744       2.25393802      -0.00006910      -0.00555837      -0.00142041
4
Lattice="2.74636823 -1.58561665 -1.4e-07 0.0 3.17123298 -1.4e-07 0.0 0.0 5.36374247" Properties=species:S:1:pos:R:3:forces:R:3 energy=19.19301481 stress="-2.038964156628892 -0.06450018114007922 -0.14195848335774194 -0.06450018114007922 -2.857280779059287 -0.4006274905381518 -0.14195848335774194 -0.4006274905381518 -0.7548969677862872" free_energy=19.18525743 pbc="T T T"
Li       2.63085541      -1.29587157       3.77015690      -0.01073008      -3.87507349      10.22552150
S        1.29415347       0.70382737       2.44113755      -5.56493644       5.26793188      -2.36018550
S        0.20541362       1.77550230       2.90377394      11.22218048      30.68748589      27.08070362
Sc       1.92245776      -0.79280814       2.14549725      -5.64651396     -32.08034427     -34.94603962
4
Lattice="3.26873781 -1.2e-07 0.55186011 0.0 3.67364976 -1.6e-07 0.0 0.0 4.25825772" Properties=species:S:1:pos:R:3:forces:R:3 energy=8.96204899 stress="-1.9350406480541251 0.1224640734378141 -0.3271380610449112 0.1224640734378141 -1.9789367818679384 -0.05566914495698027 -0.3271380610449112 -0.05566914495698027 -0.2570396068845196" free_energy=8.93986345 pbc="T T T"
Li       3.12116727       0.13909474       1.52364856       2.28991269       2.79765024      -5.23568951
S        1.77485265       1.42376298       2.32275991       6.20586593     -54.06200800       3.67455568