16
Lattice="5.86361191 -2.6e-07 -2.6e-07 0.0 9.74917035 -4.3e-07 0.0 0.0 5.56969681" Properties=species:S:1:pos:R:3:forces:R:3 energy=-73.78654479980469 pbc="T T T"
Sc       1.81914144       3.92943949       3.25031473       1.12584770       1.82058311       1.12113392
Sc       0.97726867       3.24972337       0.46414120      -0.51019359      -0.29987341       1.02610350
Sc       2.44317165       6.49944682       1.85656519       0.90591246       0.60234207      -1.52999043
Sc       5.37497760       0.81243059       1.39242393      -1.66288161      -2.11288285       0.23300396
S        3.90907463       8.93673935       2.78484784      -0.55339110      -0.21695703       0.22416361
S        3.90907463       8.12430842       0.46414085       0.08461925      -1.93292165       0.25397563
S        4.88634324      -0.00000022       4.64141377       2.32365131       1.17302024      -0.03051800
S        0.97726867       6.49944689       3.71313090       0.35686678       1.23857820       2.46570110
S        0.48863431       4.87458515       1.85656535      -4.26190424       2.76671886      -2.88613653
S        1.46590298       1.62486169       2.32070689      -0.23751307       0.08061181      -1.86150229
S        2.44317165      -0.00000011       4.17727250      -1.21173978      -0.84375489      -0.05759007
S        2.44317165       2.43729248       4.64141377       4.10920286      -2.46746826       2.55183244
Li       3.42044026       6.49944678       4.17727217       0.72328359       0.33914027       1.60824716
Li       5.37497760       2.43729235       4.17727226      -1.18806338      -0.83101255      -1.07464314
Li       0.97726867       8.12430855       0.46414098      -0.54797262       0.36494714      -1.42292213
Li       3.90907463       3.24972324       1.85656527       0.54427516       0.31892774      -0.62085992
16
Lattice="5.86361191 -2.6e-07 -2.6e-07 0.0 9.74917035 -4.3e-07 0.0 0.0 5.56969681" Properties=species:S:1:pos:R:3:forces:R:3 energy=-73.78654479980469 pbc="T T T"
Sc       1.81914144       3.92943949       3.25031473       1.12584770       1.82058311       1.12113392
Sc       0.97726867       3.24972337       0.46414120      -0.51019359      -0.29987341       1.02610350
Sc       2.44317165       6.49944682       1.85656519       0.90591246       0.60234207      -1.52999043
Sc       5.37497760       0.81243059       1.39242393      -1.66288161      -2.11288285       0.23300396
S        3.90907463       8.93673935       2.78484784      -0.55339110      -0.21695703       0.22416361
S        3.90907463       8.12430842       0.46414085       0.08461925      -1.93292165       0.25397563
S        4.88634324      -0.00000022       4.64141377       2.32365131       1.17302024      -0.03051800
S        0.97726867       6.49944689       3.71313090       0.35686678       1.23857820       2.46570110
S        0.48863431       4.87458515       1.85656535      -4.26190424       2.76671886      -2.88613653
S        1.46590298       1.62486169       2.32070689      -0.23751307       0.08061181      -1.86150229
S        2.44317165      -0.00000011       4.17727250      -1.21173978      -0.84375489      -0.05759007
S        2.44317165       2.43729248       4.64141377       4.10920286      -2.46746826       2.55183244
Li       3.42044026       6.49944678       4.17727217       0.72328359       0.33914027       1.60824716
Li       5.37497760       2.43729235       4.17727226      -1.18806338      -0.83101255      -1.07464314
Li       0.97726867       8.12430855       0.46414098      -0.54797262       0.36494714      -1.42292213
Li       3.90907463       3.24972324       1.85656527       0.54427516       0.31892774      -0.62085992
16
Lattice="5.86361191 -2.6e-07 -2.6e-07 0.0 9.74917035 -4.3e-07 0.0 0.0 5.56969681" Properties=species:S:1:pos:R:3:forces:R:3 energy=-73.78654479980469 pbc="T T T"
Sc       1.81914144       3.92943949       3.25031473       1.12584770       1.82058311       1.12113392
Sc       0.97726867       3.24972337       0.46414120      -0.51019359      -0.29987341       1.02610350
Sc       2.44317165       6.49944682       1.85656519       0.90591246       0.60234207      -1.52999043
Sc       5.37497760       0.81243059       1.39242393      -1.66288161      -2.11288285       0.23300396
S        3.90907463       8.93673935       2.78484784      -0.55339110      -0.21695703       0.22416361
S        3.90907463       8.12430842       0.46414085       0.08461925      -1.93292165       0.25397563
S        4.88634324      -0.00000022       4.64141377       2.32365131       1.17302024      -0.03051800
S        0.97726867       6.49944689       3.71313090       0.35686678       1.23857820       2.46570110
S        0.48863431       4.87458515       1.85656535      -4.26190424       2.76671886      -2.88613653
S        1.46590298       1.62486169       2.32070689      -0.23751307       0.08061181      -1.86150229
S        2.44317165      -0.00000011       4.17727250      -1.21173978      -0.84375489      -0.05759007
S        2.44317165       2.43729248       4.64141377       4.10920286      -2.46746826       2.55183244
Li       3.42044026       6.49944678       4.17727217       0.72328359       0.33914027       1.60824716
Li       5.37497760       2.43729235       4.17727226      -1.18806338      -0.83101255      -1.07464314
Li       0.97726867       8.12430855       0.46414098      -0.54797262       0.36494714      -1.42292213
Li       3.90907463       3.24972324       1.85656527       0.54427516       0.31892774      -0.62085992
12
Lattice="4.35495586 -2.51433528 -2.2e-07 0.0 5.02867005 -2.2e-07 0.0 0.0 7.59447827" Properties=species:S:1:pos:R:3:forces:R:3 energy=18.895397186279297 pbc="T T T"
Li       2.85080658      -0.54541055       2.92325947      -4.66178513       1.62261188      -2.40071869
Li       2.33296327       1.54120582       3.02725456      -4.31743479      -0.06373155      -0.28042412
Li       0.15696907       0.16111637       4.24605972       9.62705135       8.59183025       1.85730112
S        0.43549559       2.76576855       4.55668711      25.65272903       9.77922916       7.72832298
S        2.61297352       3.01720218       4.55668716      -9.94035053      -0.92107737       4.75111151
S        2.17747793       0.25143363       4.55668747     -22.87705612      12.41798782      -0.31680048
S        0.87099117       4.02293609       3.03779152      26.76432610      12.58794022      -3.93048191
S        0.43549559       1.76003454       3.03779143       7.70099115      -4.54119444      -3.47855806
S        3.91946027       1.76003474       4.55668758      -4.66702795      -7.03906870      11.61789322
Sc       3.48396469      -2.01146782       3.03779174      -3.29303098      -2.98750949     -12.65282726
Sc       3.48396469      -0.50286681       4.55668748       1.36004531     -22.83626747       1.16453600
Sc       3.91946027       0.75430073       3.03779189     -21.34845352      -6.61075163      -4.05935431
12
Lattice="4.35495586 -2.51433528 -2.2e-07 0.0 5.02867005 -2.2e-07 0.0 0.0 7.59447827" Properties=species:S:1:pos:R:3:forces:R:3 energy=-25.53815746307373 pbc="T T T"
Li       2.44528703      -0.27181221       1.69235747      -3.43483138       0.79235768      -0.13743788
Li       2.45712572       1.40081502       1.68130150      -3.84828830       0.19780439      -0.13580668
Li       0.82946466      -0.24192690       3.96608514      -0.03842645      -0.17357378       0.23243122
S        1.04060255       3.10066640       6.28334386       2.61708164       0.42340246       0.51804322
S        2.69582355       2.69601667       6.26252190      -0.04926968      -0.41266751       0.37398979
S        1.44261985       0.56231302       5.96102418      -0.04049374      -0.35978371      -0.42561799
S        0.70936639       4.61052654       1.68631825       2.64344049      -0.66664410      -0.28514248
S        0.73628629       1.60869695       1.66301989       3.26040149       0.18734550      -0.02612726
S        3.86849993       1.45975996       6.26231643      -1.08227885       2.58212209       0.16855173
Sc       2.94268910       3.09969903       1.70144855      -0.62684786      -0.75908685      -0.20028041
Sc       3.68743524      -0.59737788       6.29677002      -1.38586295      -1.99212098       0.02431962
Sc       3.82482225       0.57558097       1.67466971       1.98537874       0.18084373      -0.10692316
16
Lattice="4.18088369 0.0 0.0 0.0 4.18088369 0.0 0.0 0.0 9.14091542" Properties=species:S:1:pos:R:3:forces:R:3 energy=-58.351505279541016 pbc="T T T"
Li       0.00000000       0.00000000       0.00000000       0.00000090       0.00000085       0.00000527
Li       0.00000000       2.09044184       2.28522886      -0.00000111       0.00000136      -0.00000124
Li       2.09044184       2.09044184       4.57045771       0.00000266      -0.00000192      -0.00000330
Li       2.09044184       0.00000000       6.85568657       0.00000130       0.00000081      -0.00000218
Sc       2.09044184       0.00000000       2.28522886      -0.00000011      -0.00000241       0.00001816
Sc       2.09044184       2.09044184       0.00000000      -0.00000213      -0.00000120       0.00001687
Sc       0.00000000       2.09044184       6.85568657      -0.00000054      -0.00000194      -0.00002092
Sc       0.00000000       0.00000000       4.57045771      -0.00000296       0.00000250      -0.00002082
S        0.00000000       0.00000000       2.45921731       0.00000193       0.00000362      -4.88473034
S        2.09044184       0.00000000       0.17398846       0.00000249       0.00000188      -4.88474464
S        2.09044184       2.09044184       2.11124040       0.00000004      -0.00000182       4.88472509
S        2.09044184       0.00000000       4.39646925       0.00000195       0.00000166       4.88473082
S        2.09044184       2.09044184       7.02967502       0.00001538       0.00000233      -4.88475037
S        0.00000000       2.09044184       4.74444617      -0.00000186      -0.00000128      -4.88473272
S        0.00000000       0.00000000       6.68169811      -0.00001249      -0.00000232       4.88475370
S        0.00000000       2.09044184       8.96692696      -0.00000495      -0.00000106       4.88475466
16
Lattice="4.18088369 0.0 0.0 0.0 4.18088369 0.0 0.0 0.0 9.14091542" Properties=species:S:1:pos:R:3:forces:R:3 energy=-64.23908996582031 pbc="T T T"
Li      -0.00000008       0.00000008       0.00000000      -0.00000027       0.00000148       0.00000019
Li       0.00000008       2.09044176       2.28522886      -0.00000050      -0.00000161      -0.00000095
Li       2.09044176       2.09044193       4.57045771      -0.00000212       0.00000176      -0.00000224
Li       2.09044193      -0.00000008       6.85568657       0.00000167      -0.00000077      -0.00000030
Sc       2.09044184       0.00000000       2.28522886      -0.00000032       0.00000406       0.00000130
Sc       2.09044184       2.09044184       0.00000000       0.00000153      -0.00000369       0.00000870
Sc       0.00000000       2.09044184       6.85568657      -0.00000062       0.00000070       0.00001025
Sc       0.00000000       0.00000004       4.57045771       0.00000423      -0.00000023      -0.00001365
S        0.00000000      -0.00000004       2.20459382       0.00000726       0.00000715      -1.46436334
S        2.09044180       0.00000000      -0.08063503       0.00000057      -0.00000127      -1.46436727
S        2.09044189       2.09044184       2.36586389      -0.00001381      -0.00000853       1.46436393
S        2.09044184       0.00000004       4.65109274       0.00000383      -0.00000342       1.46435833
S        2.09044184       2.09044180       6.77505144      -0.00001151       0.00000476      -1.46435952
S       -0.00000004       2.09044184       4.48982268       0.00000023       0.00000419      -1.46436501
S        0.00000004       0.00000000       6.93632169       0.00000728      -0.00000535       1.46437156
S        0.00000000       2.09044189       9.22155045       0.00000106       0.00000117       1.46435750
16
Lattice="5.03229512 -0.0 -5.2e-07 1e-08 5.03229397 -5.1e-07 -1e-06 -9.9e-07 10.28130394" Properties=species:S:1:pos:R:3:forces:R:3 energy=-97.0759048461914 pbc="T T T"
Li       5.03229548      -0.00000235      10.28130352      -0.00000124       0.00000246       0.00000172
Li      -0.00000160       2.51614810       2.57032563       0.00000187      -0.00000234      -0.00000091
Li       2.51614842       2.51614513       5.14065156      -0.00000291       0.00000249       0.00000023
Li       2.51614546       5.03229459       7.71097708       0.00000236      -0.00000143       0.00000085
Sc       2.51614722       5.03229382       2.57032532      -0.00000098       0.00000517      -0.00000188
Sc       2.51614667       2.51614589      10.28130332      -0.00000022      -0.00000102      -0.00000300
Sc      -0.00000085       2.51614634       7.71097780      -0.00000084      -0.00000230      -0.00000043
Sc       5.03229472      -0.00000060       5.14065135       0.00000330      -0.00000033       0.00000122
S       -0.00000045       5.03229452       2.61769329       0.00000048      -0.00000006      -0.18530288
S        2.51614736      -0.00000120      10.32867150      -0.00000120       0.00000019      -0.18530264
S        2.51614651       2.51614694       2.52295765       0.00000055      -0.00000500       0.18530197
S        2.51614727      -0.00000130       5.09328389      -0.00000358       0.00000050       0.18530247
S        2.51614661       2.51614704       7.75834526       0.00000064      -0.00000048      -0.18529882
S        5.03229543       2.51614628       5.18801901      -0.00000001       0.00000008      -0.18530101
S       -0.00000154       5.03229343       7.66360963       0.00000097       0.00000194       0.18530113
S        5.03229533       2.51614618      -0.04736859       0.00000082       0.00000011       0.18530199
4
Lattice="3.27992818 -1.4e-07 -1.4e-07 0.0 3.27992818 -1.4e-07 0.0 0.0 4.73442175" Properties=species:S:1:pos:R:3:forces:R:3 energy=-3.600706100463867 pbc="T T T"
Li       2.42929140       2.63361865       0.79338410      -2.04485941      -0.42549393      -4.62230206
S        0.46334453       2.06526390       1.95534964      -3.98447108      -2.70858240      -7.85332012
S        2.45532501       0.57585341       2.20920283       2.03620315       6.99112988      -4.95855713
Sc       1.96795691       2.29594981       2.84065325       3.99312711      -3.85705280      17.43417740
4
Lattice="3.78587169 -1.7e-07 -1.7e-07 0.0 3.78587169 -1.7e-07 0.0 0.0 3.78587169" Properties=species:S:1:pos:R:3:forces:R:3 energy=-10.043966293334961 pbc="T T T"
Li       1.64274227       2.26879261       1.03166417      -1.73110497      -0.20377927      -2.83793545
S        3.22699393       2.38436501       2.36175799      -2.52230382       6.50476456       4.19590282
S        0.07223072       0.94886547       1.92038375       1.35467887      -2.66650677      -0.07718158
Sc       1.89293585       0.37858724       1.51434876       2.89873171      -3.63447809      -1.28078604
4
Lattice="3.78587169 -1.7e-07 -1.7e-07 0.0 3.78587169 -1.7e-07 0.0 0.0 3.78587169" Properties=species:S:1:pos:R:3:forces:R:3 energy=-14.430145263671875 pbc="T T T"
Li       1.70534397       1.97031762      -0.58599245       0.02414111      -0.00989365       0.21005602
S        3.40349702       2.92803201       3.08004746       0.63617468       3.76320910      -0.07211417
S        0.01118407       1.00515586       3.08035855      -0.69374257      -3.78345823      -0.08524147
Sc       1.71487771       0.07710488       1.25374115       0.03342703       0.03014329      -0.05270071
4
Lattice="3.78587169 -1.7e-07 -1.7e-07 0.0 3.78587169 -1.7e-07 0.0 0.0 3.78587169" Properties=species:S:1:pos:R:3:forces:R:3 energy=-14.430145263671875 pbc="T T T"
Li       1.70534397       1.97031762      -0.58599245       0.02414111      -0.00989365       0.21005602
S        3.40349702       2.92803201       3.08004746       0.63617468       3.76320910      -0.07211417
S        0.01118407       1.00515586       3.08035855      -0.69374257      -3.78345823      -0.08524147
Sc       1.71487771       0.07710488       1.25374115       0.03342703       0.03014329      -0.05270071
4
Lattice="3.76139288 -1.6e-07 -1.6e-07 0.0 5.5272946 -2.4e-07 0.0 0.0 3.70957922" Properties=species:S:1:pos:R:3:forces:R:3 energy=-16.166561126708984 pbc="T T T"
Sc       0.49967325       4.40288107       2.18426517      -8.12497711       8.32677937       0.31229511
Li       2.27864872       1.43656798       1.70969308       0.42089903      -3.67512798      -0.70556527
S        2.02854434       3.25895311       2.24274241       9.25147820      -0.87904072       3.06623316
S        0.37613929       2.21091788       1.48383180      -1.54739857      -3.77261138      -2.67296290
4
Lattice="3.76139288 -1.6e-07 -1.6e-07 0.0 5.5272946 -2.4e-07 0.0 0.0 3.70957922" Properties=species:S:1:pos:R:3:forces:R:3 energy=-22.158945083618164 pbc="T T T"
Sc       0.35544422       5.21611486       3.04156085      -0.00004467       0.43578047       0.34233108
Li       2.23600585       0.60445777       1.30704152       0.00091295       0.00657332      -0.16069709
S        2.23617932       4.04903405       2.18539798      -0.00039706      -0.25309137      -0.10383910
S        0.35537621       1.43971337       1.08653211      -0.00047153      -0.18926251      -0.07779506
4
Lattice="3.76139288 -1.6e-07 -1.6e-07 0.0 5.5272946 -2.4e-07 0.0 0.0 3.70957922" Properties=species:S:1:pos:R:3:forces:R:3 energy=-22.158945083618164 pbc="T T T"
Sc       0.35544422       5.21611486       3.04156085      -0.00004467       0.43578047       0.34233108
Li       2.23600585       0.60445777       1.30704152       0.00091295       0.00657332      -0.16069709
S        2.23617932       4.04903405       2.18539798      -0.00039706      -0.25309137      -0.10383910
S        0.35537621       1.43971337       1.08653211      -0.00047153      -0.18926251      -0.07779506
4
Lattice="4.32192883 -1.9e-07 -1.9e-07 0.0 3.76539748 -1.6e-07 0.0 0.0 3.39704775" Properties=species:S:1:pos:R:3:forces:R:3 energy=-13.443710327148438 pbc="T T T"
Li       2.34081820       1.81506664       2.14815150       0.88908964       0.18758734       2.43140316
S        0.39672407       2.47076336       2.09834995       0.12327921       1.44842935       3.91722536
S        0.13007696       0.74247557       1.32667589       5.64985704       1.75719702      -4.09200239
Sc       2.59315730       0.00000011       1.35881922      -6.66222620      -3.39321303      -2.25662613
4
Lattice="4.32192883 -1.9e-07 -1.9e-07 0.0 3.76539748 -1.6e-07 0.0 0.0 3.39704775" Properties=species:S:1:pos:R:3:forces:R:3 energy=-18.645999908447266 pbc="T T T"
Li       2.44376663       1.35758398       2.58080967       0.00221713       0.01947203       0.00381588
S        0.28674299       3.02547054       2.58346028      -0.01013502       0.49637944      -0.00402578
S        0.28571360       1.16952348       0.88510195      -0.00749022       0.16878106      -0.00759786
Sc       2.44455335      -0.52427236       0.88262467       0.01540804      -0.68463278       0.00780769
4
Lattice="4.32192883 -1.9e-07 -1.9e-07 0.0 3.76539748 -1.6e-07 0.0 0.0 3.39704775" Properties=species:S:1:pos:R:3:forces:R:3 energy=-18.645999908447266 pbc="T T T"
Li       2.44376663       1.35758398       2.58080967       0.00221713       0.01947203       0.00381588
S        0.28674299       3.02547054       2.58346028      -0.01013502       0.49637944      -0.00402578
S        0.28571360       1.16952348       0.88510195      -0.00749022       0.16878106      -0.00759786
Sc       2.44455335      -0.52427236       0.88262467       0.01540804      -0.68463278       0.00780769
4
Lattice="3.66509166 -2.11604194 -1.8e-07 0.0 4.23208345 -1.8e-07 0.0 0.0 3.13522677" Properties=species:S:1:pos:R:3:forces:R:3 energy=-11.23232364654541 pbc="T T T"
Li       3.17535101      -1.71579861       2.03345290      -4.52832699      -6.42352772       3.73525620
S        1.06140560       1.33517925       1.57225652       7.96367741       6.49091530       0.72408551
S        2.97778754      -0.02417259       1.60029640       0.70553350       7.84175014       0.24354553
Sc       1.09952750      -0.63481246       1.25409109      -4.14088535      -7.90913773      -4.70288658
4
Lattice="3.66509166 -2.11604194 -1.8e-07 0.0 4.23208345 -1.8e-07 0.0 0.0 3.13522677" Properties=species:S:1:pos:R:3:forces:R:3 energy=-17.499492645263672 pbc="T T T"
Li       2.99502263      -1.84634102       2.02945209       0.00083610      -0.00317853       0.03622974
S        1.16259867       1.32734606       1.99610177       0.04104335      -0.02809811      -0.02495073
S        2.99439389       0.26950364       1.99588127      -0.03904242       0.02658569      -0.02343421
Sc       1.16205645      -0.79011308       0.43866178      -0.00283714       0.00469077       0.01215526
4
Lattice="3.66509166 -2.11604194 -1.8e-07 0.0 4.23208345 -1.8e-07 0.0 0.0 3.13522677" Properties=species:S:1:pos:R:3:forces:R:3 energy=-17.499492645263672 pbc="T T T"
Li       2.99502263      -1.84634102       2.02945209       0.00083610      -0.00317853       0.03622974
S        1.16259867       1.32734606       1.99610177       0.04104335      -0.02809811      -0.02495073
S        2.99439389       0.26950364       1.99588127      -0.03904242       0.02658569      -0.02343421
Sc       1.16205645      -0.79011308       0.43866178      -0.00283714       0.00469077       0.01215526
4
Lattice="3.50667025 1.03091743 1.56146372 0.0 3.65506867 1.56146372 0.0 0.0 3.97463155" Properties=species:S:1:pos:R:3:forces:R:3 energy=-16.932220458984375 pbc="T T T"
Li       0.88159689       1.63425969       4.27155182       0.83053482       1.86595762       0.44528267
S        2.91287031       1.33299118       1.68157960       3.11222935      -3.64179564      -1.61227047
S        0.94611548       0.99052363       2.34025847      -2.59851956      -2.94592023       0.95089602
Sc       1.75333512       3.07400678       2.27121962      -1.34424520       4.72175884       0.21609193
4
Lattice="3.50667025 1.03091743 1.56146372 0.0 3.65506867 1.56146372 0.0 0.0 3.97463155" Properties=species:S:1:pos:R:3:forces:R:3 energy=-17.980018615722656 pbc="T T T"
Li       0.67578080       1.95898844       4.33128450       0.03397457       0.38833821       0.21547961
S        2.98664420       1.25575546       1.36832261       0.39223164       0.03744695      -0.10224587
S        1.18307066       0.72521996       2.61106440      -0.23779747      -0.13810770       0.27769399
Sc       1.64842218       3.09181744       2.25393802      -0.18840857      -0.28767741      -0.39092782
4
Lattice="3.50667025 1.03091743 1.56146372 0.0 3.65506867 1.56146372 0.0 0.0 3.97463155" Properties=species:S:1:pos:R:3:forces:R:3 energy=-17.980018615722656 pbc="T T T"
Li       0.67578080       1.95898844       4.33128450       0.03397457       0.38833821       0.21547961
S        2.98664420       1.25575546       1.36832261       0.39223164       0.03744695      -0.10224587
S        1.18307066       0.72521996       2.61106440      -0.23779747      -0.13810770       0.27769399
Sc       1.64842218       3.09181744       2.25393802      -0.18840857      -0.28767741      -0.39092782
4
Lattice="2.74636823 -1.58561665 -1.4e-07 0.0 3.17123298 -1.4e-07 0.0 0.0 5.36374247" Properties=species:S:1:pos:R:3:forces:R:3 energy=5.113042831420898 pbc="T T T"
Li       2.63085541      -1.29587157       3.77015690      -1.23267221      -3.18399310       6.59604025
S        1.29415347       0.70382737       2.44113755       0.87022746      -1.33687043      -1.60458934
S        0.20541362       1.77550230       2.90377394       5.80608988      19.95302200      11.04915524
Sc       1.92245776      -0.79280814       2.14549725      -5.44364691     -15.43215656     -16.04060555
4
Lattice="3.26873781 -1.2e-07 0.55186011 0.0 3.67364976 -1.6e-07 0.0 0.0 4.25825772" Properties=species:S:1:pos:R:3:forces:R:3 energy=3.7630672454833984 pbc="T T T"
Li       3.12116727       0.13909474       1.52364856       3.35185909       4.35678387      -4.21517706
S        1.77485265       1.42376298       2.32275991       2.22152948     -35.09398270       0.29761106
S        1.90906007       2.85203990       2.49071146      -3.12975216      31.99971008       9.10976028
Sc       0.32687378       2.20418988       1.75848922      -2.44363403      -1.26250625      -5.19219303
16
Lattice="7.11430119 -3.1e-07 -3.1e-07 0.0 7.11430119 -3.1e-07 0.0 0.0 7.11430119" Properties=species:S:1:pos:R:3:forces:R:3 energy=-72.76344299316406 pbc="T T T"
Sc       1.40122558       6.71027278       2.98000128       2.29141021       2.12769556      -0.77590549
Sc       2.96429219       4.15000887       2.96429188       2.66481924      -1.37212968      -1.57089615
Sc       2.96429219       5.92858417       0.59285802       0.68897265       1.15445733      -1.53843069
Sc       0.00000000       0.59285841       5.33572587      -0.41926432       0.77123702       2.10016680
S        4.74286748       0.59285820       6.52144255      -0.18125162      -2.55253029      -0.57322627
S        4.74286748       2.37143350       1.77857499      -0.17090991       0.43152267       0.28725255
S        6.52144278       2.37143342      -0.00000039       1.01854503       0.38457888       0.07599148
S        1.77857530       2.37143363       6.52144260      -1.53915977      -0.72796828      -0.81425583
S        3.55715059       2.96429203       4.74286720      -0.72776490      -0.83448529       2.29538560
S        5.33572589       4.15000877       3.55715018       1.06235683      -0.38789243       0.12479512
S        6.52144278       5.92858402       3.55715005      -3.22301769       0.94033217       1.93201137
S        1.18571689       4.74286743       1.77857504      -1.45715690      -0.99646825      -2.79126954
Li       1.18571689       2.37143365       3.55715044      -0.29722583       0.75807941       0.08353974
Li       5.33572589       5.33572566       5.92858384       0.36419171      -0.67961836      -0.20937482
Li       6.52144278      -0.00000028       1.18571660      -0.92704386       0.34567687      -0.26464769
Li       2.96429219       5.92858417       4.74286710       0.85249889       0.63751233       1.63886428
16
Lattice="7.11430119 -3.1e-07 -3.1e-07 0.0 7.11430119 -3.1e-07 0.0 0.0 7.11430119" Properties=species:S:1:pos:R:3:forces:R:3 energy=-72.76344299316406 pbc="T T T"
Sc       1.40122558       6.71027278       2.98000128       2.29141021       2.12769556      -0.77590549
Sc       2.96429219       4.15000887       2.96429188       2.66481924      -1.37212968      -1.57089615
Sc       2.96429219       5.92858417       0.59285802       0.68897265       1.15445733      -1.53843069
Sc       0.00000000       0.59285841       5.33572587      -0.41926432       0.77123702       2.10016680
S        4.74286748       0.59285820       6.52144255      -0.18125162      -2.55253029      -0.57322627
S        4.74286748       2.37143350       1.77857499      -0.17090991       0.43152267       0.28725255
S        6.52144278       2.37143342      -0.00000039       1.01854503       0.38457888       0.07599148
S        1.77857530       2.37143363       6.52144260      -1.53915977      -0.72796828      -0.81425583
S        3.55715059       2.96429203       4.74286720      -0.72776490      -0.83448529       2.29538560
S        5.33572589       4.15000877       3.55715018       1.06235683      -0.38789243       0.12479512
S        6.52144278       5.92858402       3.55715005      -3.22301769       0.94033217       1.93201137
S        1.18571689       4.74286743       1.77857504      -1.45715690      -0.99646825      -2.79126954
Li       1.18571689       2.37143365       3.55715044      -0.29722583       0.75807941       0.08353974
Li       5.33572589       5.33572566       5.92858384       0.36419171      -0.67961836      -0.20937482
Li       6.52144278      -0.00000028       1.18571660      -0.92704386       0.34567687      -0.26464769
Li       2.96429219       5.92858417       4.74286710       0.85249889       0.63751233       1.63886428
16
Lattice="7.11430119 -3.1e-07 -3.1e-07 0.0 7.11430119 -3.1e-07 0.0 0.0 7.11430119" Properties=species:S:1:pos:R:3:forces:R:3 energy=-72.76344299316406 pbc="T T T"
Sc       1.40122558       6.71027278       2.98000128       2.29141021       2.12769556      -0.77590549
Sc       2.96429219       4.15000887       2.96429188       2.66481924      -1.37212968      -1.57089615
Sc       2.96429219       5.92858417       0.59285802       0.68897265       1.15445733      -1.53843069
Sc       0.00000000       0.59285841       5.33572587      -0.41926432       0.77123702       2.10016680
S        4.74286748       0.59285820       6.52144255      -0.18125162      -2.55253029      -0.57322627
S        4.74286748       2.37143350       1.77857499      -0.17090991       0.43152267       0.28725255
S        6.52144278       2.37143342      -0.00000039       1.01854503       0.38457888       0.07599148
S        1.77857530       2.37143363       6.52144260      -1.53915977      -0.72796828      -0.81425583
S        3.55715059       2.96429203       4.74286720      -0.72776490      -0.83448529       2.29538560
S        5.33572589       4.15000877       3.55715018       1.06235683      -0.38789243       0.12479512
S        6.52144278       5.92858402       3.55715005      -3.22301769       0.94033217       1.93201137
S        1.18571689       4.74286743       1.77857504      -1.45715690      -0.99646825      -2.79126954
Li       1.18571689       2.37143365       3.55715044      -0.29722583       0.75807941       0.08353974
Li       5.33572589       5.33572566       5.92858384       0.36419171      -0.67961836      -0.20937482
Li       6.52144278      -0.00000028       1.18571660      -0.92704386       0.34567687      -0.26464769
Li       2.96429219       5.92858417       4.74286710       0.85249889       0.63751233       1.63886428
16