160
Lattice="11.079999924 0.0 0.0 0.0 11.079999924 0.0 0.0 0.0 25.451000214" Properties=species:S:1:pos:R:3:forces:R:3 magmom=0.2870411 stress="-0.05655010741247737 0.0029049918339689707 8.113961863648234e-08 0.0029049918339689707 -0.05655010741247737 8.113961863648234e-08 8.113961863648234e-08 8.113961863648234e-08 -0.08970108422143817" free_energy=-765.99843789 energy=-765.99579873 pbc="T T T"
Ge      10.52600000       2.21600000      12.29111000       0.51727600       0.51727600      -0.20584600
Ge       4.98600000       4.98600000      20.46703000      -0.02881000      -0.02881000      -0.04754400
Ge       4.98600000       4.98600000      15.00941000       0.28037700       0.28037700       0.07805200
Ge       9.14100000       3.60100000      21.82527000       0.28017900       0.28017900      -0.06141400
Ge       9.14100000       3.60100000      16.37018000      -0.02917200      -0.02917200       0.05281900
Ge       7.75600000       2.21600000      20.46703000      -0.02881000      -0.02881000      -0.04754400
Ge       7.75600000       2.21600000      15.00941000       0.28037700       0.28037700       0.07805200
Ge       9.14100000       6.37100000      24.54330000       0.51684400       0.51684400       0.20242300
Ge       6.37100000       6.37100000      16.37018000      -0.02917200      -0.02917200       0.05281900
Ge       9.14100000       6.37100000      19.10438000       0.04720800       0.04720800      -0.04817300
Ge       7.75600000       4.98600000      23.17989000      -0.05184900      -0.05184900      -0.54179400
Ge       7.75600000       4.98600000      17.73614000       0.04721400       0.04721400       0.01598700
Ge       7.75600000       4.98600000      12.29111000       0.51727600       0.51727600      -0.20584600
Ge       6.37100000       3.60100000      24.54330000       0.51684400       0.51684400       0.20242300
Ge       6.37100000       3.60100000      19.10438000       0.04720800       0.04720800      -0.04817300
Ge       6.37100000       3.60100000      13.65383000      -0.05158000      -0.05158000       0.55780100
Ge       4.98600000       2.21600000      23.17989000      -0.05184900      -0.05184900      -0.54179400
Ge       9.14100000       6.37100000      13.65383000      -0.05158000      -0.05158000       0.55780100
Ge       6.37100000       6.37100000      21.82527000       0.28017900       0.28017900      -0.06141400
Ge       4.98600000       7.75600000      12.29111000       0.51727600       0.51727600      -0.20584600
Ge       4.98600000       7.75600000      17.73614000       0.04721400       0.04721400       0.01598700
Ge       6.37100000       0.83100000      16.37018000      -0.02917200      -0.02917200       0.05281900
Ge       4.98600000      10.52600000      20.46703000      -0.02881000      -0.02881000      -0.04754400
Ge       4.98600000      10.52600000      15.00941000       0.28037700       0.28037700       0.07805200
Ge       9.14100000       9.14100000      21.82527000       0.28017900       0.28017900      -0.06141400
Ge       9.14100000       9.14100000      16.37018000      -0.02917200      -0.02917200       0.05281900
Ge       7.75600000       7.75600000      20.46703000      -0.02881000      -0.02881000      -0.04754400
Ge       7.75600000       7.75600000      15.00941000       0.28037700       0.28037700       0.07805200
Ge       9.14100000       0.83100000      24.54330000       0.51684400       0.51684400       0.20242300
Ge       9.14100000       0.83100000      19.10438000       0.04720800       0.04720800      -0.04817300
Ge       9.14100000       0.83100000      13.65383000      -0.05158000      -0.05158000       0.55780100
Ge       7.75600000      10.52600000      23.17989000      -0.05184900      -0.05184900      -0.54179400
Ge       7.75600000      10.52600000      17.73614000       0.04721400       0.04721400       0.01598700
Ge       7.75600000      10.52600000      12.29111000       0.51727600       0.51727600      -0.20584600
Ge       6.37100000       9.14100000      24.54330000       0.51684400       0.51684400       0.20242300
Ge       6.37100000       9.14100000      19.10438000       0.04720800       0.04720800      -0.04817300
Ge       6.37100000       9.14100000      13.65383000      -0.05158000      -0.05158000       0.55780100
Ge       4.98600000       7.75600000      23.17989000      -0.05184900      -0.05184900      -0.54179400
Ge       4.98600000       2.21600000      17.73614000       0.04721400       0.04721400       0.01598700
Ge       4.98600000       2.21600000      12.29111000       0.51727600       0.51727600      -0.20584600
Ge       6.37100000       0.83100000      21.82527000       0.28017900       0.28017900      -0.06141400
Ge       0.83100000       0.83100000      16.37018000      -0.02917200      -0.02917200       0.05281900
Ge      10.52600000       4.98600000      15.00941000       0.28037700       0.28037700       0.07805200
Ge       3.60100000       3.60100000      21.82527000       0.28017900       0.28017900      -0.06141400
Ge       3.60100000       3.60100000      16.37018000      -0.02917200      -0.02917200       0.05281900
Ge       2.21600000       2.21600000      20.46703000      -0.02881000      -0.02881000      -0.04754400
Ge       2.21600000       2.21600000      15.00941000       0.28037700       0.28037700       0.07805200
Ge       3.60100000       6.37100000      24.54330000       0.51684400       0.51684400       0.20242300
Ge       3.60100000       6.37100000      13.65383000      -0.05158000      -0.05158000       0.55780100
Ge      10.52600000       4.98600000      20.46703000      -0.02881000      -0.02881000      -0.04754400
Ge       2.21600000       4.98600000      23.17989000      -0.05184900      -0.05184900      -0.54179400
Ge       2.21600000       4.98600000      12.29111000       0.51727600       0.51727600      -0.20584600
Ge       0.83100000       3.60100000      24.54330000       0.51684400       0.51684400       0.20242300
Ge       0.83100000       3.60100000      19.10438000       0.04720800       0.04720800      -0.04817300
Ge       0.83100000       3.60100000      13.65383000      -0.05158000      -0.05158000       0.55780100
Ge      10.52600000       2.21600000      23.17989000      -0.05184900      -0.05184900      -0.54179400
Ge      10.52600000       2.21600000      17.73614000       0.04721400       0.04721400       0.01598700
Ge       0.83100000       0.83100000      21.82527000       0.28017900       0.28017900      -0.06141400
Ge       2.21600000       4.98600000      17.73614000       0.04721400       0.04721400       0.01598700
Ge       0.83100000       6.37100000      16.37018000      -0.02917200      -0.02917200       0.05281900
Ge       3.60100000       6.37100000      19.10438000       0.04720800       0.04720800      -0.04817300
Ge      10.52600000       7.75600000      12.29111000       0.51727600       0.51727600      -0.20584600
Ge       0.83100000       6.37100000      21.82527000       0.28017900       0.28017900      -0.06141400
Ge      10.52600000      10.52600000      15.00941000       0.28037700       0.28037700       0.07805200
Ge       3.60100000       9.14100000      21.82527000       0.28017900       0.28017900      -0.06141400
Ge       3.60100000       9.14100000      16.37018000      -0.02917200      -0.02917200       0.05281900
Ge       2.21600000       7.75600000      20.46703000      -0.02881000      -0.02881000      -0.04754400
Ge       2.21600000       7.75600000      15.00941000       0.28037700       0.28037700       0.07805200
Ge       3.60100000       0.83100000      19.10438000       0.04720800       0.04720800      -0.04817300
Ge       3.60100000       0.83100000      13.65383000      -0.05158000      -0.05158000       0.55780100
Ge       3.60100000       0.83100000      24.54330000       0.51684400       0.51684400       0.20242300
Ge      10.52600000      10.52600000      20.46703000      -0.02881000      -0.02881000      -0.04754400
Ge       2.21600000      10.52600000      17.73614000       0.04721400       0.04721400       0.01598700
Ge       2.21600000      10.52600000      12.29111000       0.51727600       0.51727600      -0.20584600
Ge       0.83100000       9.14100000      24.54330000       0.51684400       0.51684400       0.20242300
Ge       0.83100000       9.14100000      19.10438000       0.04720800       0.04720800      -0.04817300
Ge       0.83100000       9.14100000      13.65383000      -0.05158000      -0.05158000       0.55780100
Ge      10.52600000       7.75600000      23.17989000      -0.05184900      -0.05184900      -0.54179400
Ge      10.52600000       7.75600000      17.73614000       0.04721400       0.04721400       0.01598700
Ge       2.21600000      10.52600000      23.17989000      -0.05184900      -0.05184900      -0.54179400
Si       9.69500000       4.15500000      11.20914000      -0.58061000      -0.58061000      -0.16071300
Si       5.54000000       2.77000000       2.63365000      -0.31248700      -0.31248700      -0.09165800
Si       9.69500000       1.38500000       8.75172000      -0.31291900      -0.31291900       0.06718400
Si       9.69500000       1.38500000       3.85911000       0.03010500       0.03010500      -0.09413200
Si       8.31000000       0.00000000       7.52405000       0.03018600       0.03018600       0.08806000
Si       8.31000000       0.00000000       2.63365000      -0.31248700      -0.31248700      -0.09165800
Si       9.69500000       4.15500000       6.30103000      -0.05601100      -0.05601100       0.01477000
Si       5.54000000       0.00000000       5.07922000      -0.05603000      -0.05603000       0.01203000
Si       8.31000000       2.77000000       9.98572000       0.15523400       0.15523400      -0.41596100
Si       8.31000000       2.77000000       5.07922000      -0.05603000      -0.05603000       0.01203000
Si       8.31000000       2.77000000       0.17427000      -0.58056700      -0.58056700       0.16998800
Si       6.92500000       1.38500000      11.20914000      -0.58061000      -0.58061000      -0.16071300
Si       6.92500000       1.38500000       6.30103000      -0.05601100      -0.05601100       0.01477000
Si       6.92500000       1.38500000       1.39907000       0.15541100       0.15541100       0.40812100
Si       5.54000000       0.00000000       9.98572000       0.15523400       0.15523400      -0.41596100
Si       5.54000000       2.77000000       7.52405000       0.03018600       0.03018600       0.08806000
Si       9.69500000       4.15500000       1.39907000       0.15541100       0.15541100       0.40812100
Si       6.92500000       4.15500000       3.85911000       0.03010500       0.03010500      -0.09413200
Si       5.54000000       8.31000000       7.52405000       0.03018600       0.03018600       0.08806000
Si       5.54000000       5.54000000       0.17427000      -0.58056700      -0.58056700       0.16998800
Si       5.54000000       0.00000000       0.17427000      -0.58056700      -0.58056700       0.16998800
Si       5.54000000       8.31000000       2.63365000      -0.31248700      -0.31248700      -0.09165800
Si       9.69500000       6.92500000       8.75172000      -0.31291900      -0.31291900       0.06718400
Si       9.69500000       6.92500000       3.85911000       0.03010500       0.03010500      -0.09413200
Si       8.31000000       5.54000000       7.52405000       0.03018600       0.03018600       0.08806000
Si       8.31000000       5.54000000       2.63365000      -0.31248700      -0.31248700      -0.09165800
Si       9.69500000       9.69500000      11.20914000      -0.58061000      -0.58061000      -0.16071300
Si       9.69500000       9.69500000       6.30103000      -0.05601100      -0.05601100       0.01477000
Si       9.69500000       9.69500000       1.39907000       0.15541100       0.15541100       0.40812100
Si       8.31000000       8.31000000       9.98572000       0.15523400       0.15523400      -0.41596100
Si       8.31000000       8.31000000       5.07922000      -0.05603000      -0.05603000       0.01203000
Si       8.31000000       8.31000000       0.17427000      -0.58056700      -0.58056700       0.16998800
Si       6.92500000       6.92500000      11.20914000      -0.58061000      -0.58061000      -0.16071300
Si       6.92500000       6.92500000       6.30103000      -0.05601100      -0.05601100       0.01477000
Si       6.92500000       6.92500000       1.39907000       0.15541100       0.15541100       0.40812100
Si       5.54000000       5.54000000       9.98572000       0.15523400       0.15523400      -0.41596100
Si       5.54000000       5.54000000       5.07922000      -0.05603000      -0.05603000       0.01203000
Si       6.92500000       4.15500000       8.75172000      -0.31291900      -0.31291900       0.06718400
Si       1.38500000       9.69500000       8.75172000      -0.31291900      -0.31291900       0.06718400
Si       0.00000000       5.54000000       0.17427000      -0.58056700      -0.58056700       0.16998800
Si       0.00000000       8.31000000       7.52405000       0.03018600       0.03018600       0.08806000
Si       4.15500000       1.38500000       3.85911000       0.03010500       0.03010500      -0.09413200
Si       2.77000000       0.00000000       7.52405000       0.03018600       0.03018600       0.08806000
Si       2.77000000       0.00000000       2.63365000      -0.31248700      -0.31248700      -0.09165800
Si       4.15500000       4.15500000      11.20914000      -0.58061000      -0.58061000      -0.16071300
Si       4.15500000       4.15500000       6.30103000      -0.05601100      -0.05601100       0.01477000
Si       4.15500000       4.15500000       1.39907000       0.15541100       0.15541100       0.40812100
Si       2.77000000       2.77000000       9.98572000       0.15523400       0.15523400      -0.41596100
Si       4.15500000       1.38500000       8.75172000      -0.31291900      -0.31291900       0.06718400
Si       2.77000000       2.77000000       5.07922000      -0.05603000      -0.05603000       0.01203000
Si       1.38500000       1.38500000      11.20914000      -0.58061000      -0.58061000      -0.16071300
Si       1.38500000       1.38500000       6.30103000      -0.05601100      -0.05601100       0.01477000
Si       1.38500000       1.38500000       1.39907000       0.15541100       0.15541100       0.40812100
Si       0.00000000       0.00000000       9.98572000       0.15523400       0.15523400      -0.41596100
Si       0.00000000       0.00000000       5.07922000      -0.05603000      -0.05603000       0.01203000
Si      11.08000000       0.00000000       0.17427000      -0.58056700      -0.58056700       0.16998800
Si       6.92500000       9.69500000       3.85911000       0.03010500       0.03010500      -0.09413200
Si       2.77000000       2.77000000       0.17427000      -0.58056700      -0.58056700       0.16998800
Si       0.00000000       2.77000000       2.63365000      -0.31248700      -0.31248700      -0.09165800
Si       0.00000000       2.77000000       7.52405000       0.03018600       0.03018600       0.08806000
Si       1.38500000       4.15500000       3.85911000       0.03010500       0.03010500      -0.09413200
Si       0.00000000       8.31000000       2.63365000      -0.31248700      -0.31248700      -0.09165800
Si       4.15500000       6.92500000       8.75172000      -0.31291900      -0.31291900       0.06718400
Si       4.15500000       6.92500000       3.85911000       0.03010500       0.03010500      -0.09413200
Si       2.77000000       5.54000000       7.52405000       0.03018600       0.03018600       0.08806000
Si       2.77000000       5.54000000       2.63365000      -0.31248700      -0.31248700      -0.09165800
Si       4.15500000       9.69500000      11.20914000      -0.58061000      -0.58061000      -0.16071300
Si       4.15500000       9.69500000       6.30103000      -0.05601100      -0.05601100       0.01477000
Si       4.15500000       9.69500000       1.39907000       0.15541100       0.15541100       0.40812100
Si       2.77000000       8.31000000       9.98572000       0.15523400       0.15523400      -0.41596100
Si       2.77000000       8.31000000       5.07922000      -0.05603000      -0.05603000       0.01203000
Si       2.77000000       8.31000000       0.17427000      -0.58056700      -0.58056700       0.16998800
Si       1.38500000       6.92500000      11.20914000      -0.58061000      -0.58061000      -0.16071300
Si       1.38500000       6.92500000       6.30103000      -0.05601100      -0.05601100       0.01477000
Si       1.38500000       6.92500000       1.39907000       0.15541100       0.15541100       0.40812100
Si       0.00000000       5.54000000       9.98572000       0.15523400       0.15523400      -0.41596100
Si       0.00000000       5.54000000       5.07922000      -0.05603000      -0.05603000       0.01203000
Si       1.38500000       4.15500000       8.75172000      -0.31291900      -0.31291900       0.06718400
Si       1.38500000       9.69500000       3.85911000       0.03010500       0.03010500      -0.09413200
Si       6.92500000       9.69500000       8.75172000      -0.31291900      -0.31291900       0.06718400
160
Lattice="11.079999924 0.0 0.0 0.0 11.079999924 0.0 0.0 0.0 24.270671844" Properties=species:S:1:pos:R:3:forces:R:3 magmom=0.0285784 stress="-0.08439846658883415 0.012269071801949489 8.94408257739071e-06 0.012269071801949489 -0.08439846658883415 8.94408257739071e-06 8.94408257739071e-06 8.94408257739071e-06 -0.11532040700215913" free_energy=-735.70299377 energy=-735.70074809 pbc="T T T"
Ge      10.22382000       1.91382000      11.70095000      -0.10639300      -0.10639300      -0.19665000
Ge       4.68382000       4.68382000      19.87687000      -0.06060500      -0.06060500      -0.02218900
Ge       4.68382000       4.68382000      14.41924000       0.37302100       0.37302100       0.49964800
Ge       8.83882000       3.29882000      21.23510000       0.37280300       0.37280300      -0.48210400
Ge       8.83882000       3.29882000      15.78002000      -0.06104300      -0.06104300       0.02770000
Ge       7.45382000       1.91382000      19.87687000      -0.06060500      -0.06060500      -0.02218900
Ge       7.45382000       1.91382000      14.41924000       0.37302100       0.37302100       0.49964800
Ge       8.83882000       6.06882000      23.95314000      -0.10733700      -0.10733700       0.19481500
Ge       6.06882000       6.06882000      15.78002000      -0.06104300      -0.06104300       0.02770000
Ge       8.83882000       6.06882000      18.51421000       0.06586200       0.06586200      -0.09989900
Ge       7.45382000       4.68382000      22.58973000       0.33469400       0.33469400      -1.58576900
Ge       7.45382000       4.68382000      17.14598000       0.06564600       0.06564600       0.06896600
Ge       7.45382000       4.68382000      11.70095000      -0.10639300      -0.10639300      -0.19665000
Ge       6.06882000       3.29882000      23.95314000      -0.10733700      -0.10733700       0.19481500
Ge       6.06882000       3.29882000      18.51421000       0.06586200       0.06586200      -0.09989900
Ge       6.06882000       3.29882000      13.06366000       0.33433700       0.33433700       1.59827000
Ge       4.68382000       1.91382000      22.58973000       0.33469400       0.33469400      -1.58576900
Ge       8.83882000       6.06882000      13.06367000       0.33433700       0.33433700       1.59827000
Ge       6.06882000       6.06882000      21.23510000       0.37280300       0.37280300      -0.48210400
Ge       4.68382000       7.45382000      11.70095000      -0.10639300      -0.10639300      -0.19665000
Ge       4.68382000       7.45382000      17.14598000       0.06564600       0.06564600       0.06896600
Ge       6.06882000       0.52882000      15.78002000      -0.06104300      -0.06104300       0.02770000
Ge       4.68382000      10.22382000      19.87687000      -0.06060500      -0.06060500      -0.02218900
Ge       4.68382000      10.22382000      14.41924000       0.37302100       0.37302100       0.49964800
Ge       8.83882000       8.83882000      21.23510000       0.37280300       0.37280300      -0.48210400
Ge       8.83882000       8.83882000      15.78002000      -0.06104300      -0.06104300       0.02770000
Ge       7.45382000       7.45382000      19.87687000      -0.06060500      -0.06060500      -0.02218900
Ge       7.45382000       7.45382000      14.41924000       0.37302100       0.37302100       0.49964800
Ge       8.83882000       0.52882000      23.95314000      -0.10733700      -0.10733700       0.19481500
Ge       8.83882000       0.52882000      18.51421000       0.06586200       0.06586200      -0.09989900
Ge       8.83882000       0.52882000      13.06366000       0.33433700       0.33433700       1.59827000
Ge       7.45382000      10.22382000      22.58973000       0.33469400       0.33469400      -1.58576900
Ge       7.45382000      10.22382000      17.14598000       0.06564600       0.06564600       0.06896600
Ge       7.45382000      10.22382000      11.70095000      -0.10639300      -0.10639300      -0.19665000
Ge       6.06882000       8.83882000      23.95314000      -0.10733700      -0.10733700       0.19481500
Ge       6.06882000       8.83882000      18.51421000       0.06586200       0.06586200      -0.09989900
Ge       6.06882000       8.83882000      13.06366000       0.33433700       0.33433700       1.59827000
Ge       4.68382000       7.45382000      22.58973000       0.33469400       0.33469400      -1.58576900
Ge       4.68382000       1.91382000      17.14598000       0.06564600       0.06564600       0.06896600
Ge       4.68382000       1.91382000      11.70095000      -0.10639300      -0.10639300      -0.19665000
Ge       6.06882000       0.52882000      21.23510000       0.37280300       0.37280300      -0.48210400
Ge       0.52882000       0.52882000      15.78002000      -0.06104300      -0.06104300       0.02770000
Ge      10.22382000       4.68382000      14.41924000       0.37302100       0.37302100       0.49964800
Ge       3.29882000       3.29882000      21.23510000       0.37280300       0.37280300      -0.48210400
Ge       3.29882000       3.29882000      15.78002000      -0.06104300      -0.06104300       0.02770000
Ge       1.91382000       1.91382000      19.87687000      -0.06060500      -0.06060500      -0.02218900
Ge       1.91382000       1.91382000      14.41924000       0.37302100       0.37302100       0.49964800
Ge       3.29882000       6.06882000      23.95314000      -0.10733700      -0.10733700       0.19481500
Ge       3.29882000       6.06882000      13.06366000       0.33433700       0.33433700       1.59827000
Ge      10.22382000       4.68382000      19.87687000      -0.06060500      -0.06060500      -0.02218900
Ge       1.91382000       4.68382000      22.58973000       0.33469400       0.33469400      -1.58576900
Ge       1.91382000       4.68382000      11.70095000      -0.10639300      -0.10639300      -0.19665000
Ge       0.52882000       3.29882000      23.95314000      -0.10733700      -0.10733700       0.19481500
Ge       0.52882000       3.29882000      18.51421000       0.06586200       0.06586200      -0.09989900
Ge       0.52882000       3.29882000      13.06366000       0.33433700       0.33433700       1.59827000
Ge      10.22382000       1.91382000      22.58973000       0.33469400       0.33469400      -1.58576900
Ge      10.22382000       1.91382000      17.14598000       0.06564600       0.06564600       0.06896600
Ge       0.52882000       0.52882000      21.23510000       0.37280300       0.37280300      -0.48210400
Ge       1.91382000       4.68382000      17.14598000       0.06564600       0.06564600       0.06896600
Ge       0.52882000       6.06882000      15.78002000      -0.06104300      -0.06104300       0.02770000
Ge       3.29882000       6.06882000      18.51421000       0.06586200       0.06586200      -0.09989900
Ge      10.22382000       7.45382000      11.70095000      -0.10639300      -0.10639300      -0.19665000
Ge       0.52882000       6.06882000      21.23511000       0.37280300       0.37280300      -0.48210400
Ge      10.22382000      10.22382000      14.41924000       0.37302100       0.37302100       0.49964800
Ge       3.29882000       8.83882000      21.23510000       0.37280300       0.37280300      -0.48210400
Ge       3.29882000       8.83882000      15.78002000      -0.06104300      -0.06104300       0.02770000
Ge       1.91382000       7.45382000      19.87687000      -0.06060500      -0.06060500      -0.02218900
Ge       1.91382000       7.45382000      14.41924000       0.37302100       0.37302100       0.49964800
Ge       3.29882000       0.52882000      18.51421000       0.06586200       0.06586200      -0.09989900
Ge       3.29882000       0.52882000      13.06366000       0.33433700       0.33433700       1.59827000
Ge       3.29882000       0.52882000      23.95314000      -0.10733700      -0.10733700       0.19481500
Ge      10.22382000      10.22382000      19.87687000      -0.06060500      -0.06060500      -0.02218900
Ge       1.91382000      10.22382000      17.14598000       0.06564600       0.06564600       0.06896600
Ge       1.91382000      10.22382000      11.70095000      -0.10639300      -0.10639300      -0.19665000
Ge       0.52882000       8.83882000      23.95314000      -0.10733700      -0.10733700       0.19481500
Ge       0.52882000       8.83882000      18.51421000       0.06586200       0.06586200      -0.09989900
Ge       0.52882000       8.83882000      13.06366000       0.33433700       0.33433700       1.59827000
Ge      10.22382000       7.45382000      22.58973000       0.33469400       0.33469400      -1.58576900
Ge      10.22382000       7.45382000      17.14598000       0.06564600       0.06564600       0.06896600
Ge       1.91382000      10.22382000      22.58973000       0.33469400       0.33469400      -1.58576900
Si       9.69500000       4.15500000      11.20914000      -0.05843300      -0.05843300      -0.52491600
Si       5.54000000       2.77000000       2.63365000      -0.44393300      -0.44393300      -0.03731600
Si       9.69500000       1.38500000       8.75172000      -0.44445500      -0.44445500       0.01389900
Si       9.69500000       1.38500000       3.85911000       0.02849300       0.02849300      -0.12780300
Si       8.31000000       0.00000000       7.52405000       0.02883600       0.02883600       0.12163500
Si       8.31000000       0.00000000       2.63365000      -0.44393300      -0.44393300      -0.03731600
Si       9.69500000       4.15500000       6.30103000      -0.08761000      -0.08761000       0.07376100
Si       5.54000000       0.00000000       5.07922000      -0.08777700      -0.08777700      -0.04763800
Si       8.31000000       2.77000000       9.98572000      -0.04385800      -0.04385800      -1.56871100
Si       8.31000000       2.77000000       5.07922000      -0.08777700      -0.08777700      -0.04763800
Si       8.31000000       2.77000000       0.17427000      -0.05899200      -0.05899200       0.53361200
Si       6.92500000       1.38500000      11.20914000      -0.05843300      -0.05843300      -0.52491600
Si       6.92500000       1.38500000       6.30103000      -0.08761000      -0.08761000       0.07376100
Si       6.92500000       1.38500000       1.39907000      -0.04325600      -0.04325600       1.56068800
Si       5.54000000       0.00000000       9.98572000      -0.04385800      -0.04385800      -1.56871100
Si       5.54000000       2.77000000       7.52405000       0.02883600       0.02883600       0.12163500
Si       9.69500000       4.15500000       1.39907000      -0.04325600      -0.04325600       1.56068800
Si       6.92500000       4.15500000       3.85911000       0.02849300       0.02849300      -0.12780300
Si       5.54000000       8.31000000       7.52405000       0.02883600       0.02883600       0.12163500
Si       5.54000000       5.54000000       0.17427000      -0.05899200      -0.05899200       0.53361200
Si       5.54000000       0.00000000       0.17427000      -0.05899200      -0.05899200       0.53361200
Si       5.54000000       8.31000000       2.63365000      -0.44393300      -0.44393300      -0.03731600
Si       9.69500000       6.92500000       8.75172000      -0.44445500      -0.44445500       0.01389900
Si       9.69500000       6.92500000       3.85911000       0.02849300       0.02849300      -0.12780300
Si       8.31000000       5.54000000       7.52405000       0.02883600       0.02883600       0.12163500
Si       8.31000000       5.54000000       2.63365000      -0.44393300      -0.44393300      -0.03731600
Si       9.69500000       9.69500000      11.20914000      -0.05843300      -0.05843300      -0.52491600
Si       9.69500000       9.69500000       6.30103000      -0.08761000      -0.08761000       0.07376100
Si       9.69500000       9.69500000       1.39907000      -0.04325600      -0.04325600       1.56068800
Si       8.31000000       8.31000000       9.98572000      -0.04385800      -0.04385800      -1.56871100
Si       8.31000000       8.31000000       5.07922000      -0.08777700      -0.08777700      -0.04763800
Si       8.31000000       8.31000000       0.17427000      -0.05899200      -0.05899200       0.53361200
Si       6.92500000       6.92500000      11.20914000      -0.05843300      -0.05843300      -0.52491600
Si       6.92500000       6.92500000       6.30103000      -0.08761000      -0.08761000       0.07376100
Si       6.92500000       6.92500000       1.39907000      -0.04325600      -0.04325600       1.56068800
Si       5.54000000       5.54000000       9.98572000      -0.04385800      -0.04385800      -1.56871100
Si       5.54000000       5.54000000       5.07922000      -0.08777700      -0.08777700      -0.04763800
Si       6.92500000       4.15500000       8.75172000      -0.44445500      -0.44445500       0.01389900