2
Lattice="0.0 2.715 2.715 2.715 0.0 2.715 2.715 2.715 0.0" Properties=species:S:1:pos:R:3 energy=-10.791978864676977 pbc="T T T"
Si       0.00000000       0.00000000       0.00000000
Si       1.35750000       1.35750000       1.35750000
2
Lattice="0.0 2.825 2.825 2.825 0.0 2.825 2.825 2.825 0.0" Properties=species:S:1:pos:R:3 energy=-8.998747088692001 pbc="T T T"
Ge       0.00000000       0.00000000       0.00000000
Ge       1.41250000       1.41250000       1.41250000
160
Lattice="11.079999923706055 0.0 0.0 0.0 11.079999923706055 0.0 0.0 0.0 25.867603302001953" Properties=species:S:1:pos:R:3 energy=-777.489889212203 pbc="T T T"
Si      -0.00000036      -0.00000023       0.28433877
Si      -0.00000032       0.00000002       5.09487271
Si      -0.00000024      -0.00000024       9.89169771
Si       1.38500035       1.38500020       1.49486952
Si       1.38499995       1.38499980       6.28869575
Si       1.38500015       1.38499967      11.09817784
Si       2.76999953       2.76999983       0.28433866
Si       2.76999960       2.77000001       5.09487276
Si       2.76999963       2.76999963       9.89169767
Si       4.15500034       4.15500014       1.49486965
Si       4.15500032       4.15500013       6.28869484
Si       4.15499980       4.15500051      11.09817819
Si       2.77000014      -0.00000026       2.70116487
Si       2.76999992      -0.00000019       7.48429740
Si       4.15500011       1.38499998       3.89938455
Si       4.15500006       1.38499952       8.68412939
Si      -0.00000032       2.77000007       2.70116470
Si      -0.00000027       2.76999988       7.48429717
Si       1.38499979       4.15499973       3.89938432
Si       1.38499969       4.15500014       8.68412841
Si      -0.00000013       5.53999991       0.28433842
Si       0.00000009       5.53999952       5.09487252
Si       0.00000014       5.54000001       9.89169763
Si       1.38499984       6.92499947       1.49486994
Si       1.38500011       6.92500015       6.28869556
Si       1.38499928       6.92499975      11.09817872
Si       2.77000057       8.31000031       0.28433867
Si       2.77000018       8.31000021       5.09487254
Si       2.76999975       8.31000012       9.89169732
Si       4.15499984       9.69499999       1.49486934
Si       4.15499990       9.69500029       6.28869502
Si       4.15499996       9.69499981      11.09817792
Si       2.77000000       5.54000012       2.70116502
Si       2.77000030       5.53999976       7.48429681
Si       4.15499995       6.92499987       3.89938413
Si       4.15499979       6.92499983       8.68412839
Si      -0.00000010       8.30999994       2.70116500
Si       0.00000006       8.30999986       7.48429707
Si       1.38499997       9.69500000       3.89938446
Si       1.38499977       9.69500027       8.68412920
Si       5.54000029      -0.00000004       0.28433851
Si       5.54000026      -0.00000062       5.09487284
Si       5.53999959      -0.00000010       9.89169783
Si       6.92499982       1.38500025       1.49486935
Si       6.92499963       1.38500008       6.28869492
Si       6.92499979       1.38500038      11.09817837
Si       8.30999980       2.77000038       0.28433817
Si       8.30999984       2.76999978       5.09487288
Si       8.31000056       2.76999961       9.89169787
Si       9.69500010       4.15500029       1.49486947
Si       9.69500016       4.15500068       6.28869578
Si       9.69499964       4.15500016      11.09817805
Si       8.31000039       0.00000027       2.70116495
Si       8.30999988      -0.00000002       7.48429731
Si       9.69500005       1.38500053       3.89938467
Si       9.69500032       1.38499970       8.68412934
Si       5.53999983       2.76999987       2.70116493
Si       5.54000000       2.76999978       7.48429766
Si       6.92499954       4.15500029       3.89938402
Si       6.92499947       4.15500040       8.68412929
Si       5.53999981       5.54000043       0.28433789
Si       5.54000049       5.53999972       5.09487268
Si       5.53999997       5.53999983       9.89169778
Si       6.92499979       6.92499969       1.49486929
Si       6.92499949       6.92500020       6.28869533
Si       6.92499998       6.92499947      11.09817846
Si       8.30999994       8.31000015       0.28433886
Si       8.31000020       8.31000025       5.09487269
Si       8.31000005       8.31000016       9.89169767
Si       9.69500024       9.69499998       1.49486967
Si       9.69499965       9.69500039       6.28869513
Si       9.69500010       9.69500011      11.09817806
Si       8.30999998       5.54000033       2.70116473
Si       8.31000032       5.53999997       7.48429699
Si       9.69499979       6.92499994       3.89938414
Si       9.69500006       6.92499962       8.68412876
Si       5.54000006       8.31000018       2.70116471
Si       5.54000006       8.31000017       7.48429739
Si       6.92499977       9.69500011       3.89938428
Si       6.92500005       9.69499962       8.68412940
Ge       8.31000011       0.00000012      12.39985465
Ge       8.31000062      -0.00000041      17.93324196
Ge       8.30999966      -0.00000000      23.46902563
Ge       9.69500053       1.38499989      13.78124876
Ge       9.69500020       1.38500002      19.31895602
Ge       9.69500016       1.38500022      24.85229834
Ge      -0.00000020       2.76999990      12.39985480
Ge      -0.00000042       2.76999982      17.93324156
Ge      -0.00000000       2.77000057      23.46902523
Ge       1.38499949       4.15499996      13.78124873
Ge       1.38500038       4.15499932      19.31895549
Ge       1.38499976       4.15500005      24.85229941
Ge       0.00000004      -0.00000039      15.16214192
Ge      -0.00000048       0.00000002      20.70514138
Ge       1.38499979       1.38500013      16.54656279
Ge       1.38499984       1.38499947      22.08870671
Ge       8.30999996       2.76999958      15.16214137
Ge       8.31000019       2.76999972      20.70514175
Ge       9.69499944       4.15499992      16.54656258
Ge       9.69499982       4.15500032      22.08870611
Ge       8.31000056       5.54000028      12.39985443
Ge       8.31000049       5.53999939      17.93324190
Ge       8.31000108       5.53999985      23.46902549
Ge       9.69500075       6.92499995      13.78124852
Ge       9.69500042       6.92499999      19.31895536
Ge       9.69500030       6.92500014      24.85229860
Ge      -0.00000027       8.31000006      12.39985406
Ge      -0.00000043       8.31000034      17.93324174
Ge       0.00000034       8.30999977      23.46902505
Ge       1.38499991       9.69500019      13.78124822
Ge       1.38499969       9.69499990      19.31895497
Ge       1.38499985       9.69500001      24.85229900
Ge       0.00000028       5.53999971      15.16214236
Ge       0.00000006       5.53999984      20.70514123
Ge       1.38500000       6.92500075      16.54656322
Ge       1.38500005       6.92499962      22.08870619
Ge       8.31000033       8.30999979      15.16214155
Ge       8.30999909       8.31000002      20.70514140
Ge       9.69499946       9.69500055      16.54656312
Ge       9.69499933       9.69499920      22.08870628
Ge       2.76999995       0.00000015      12.39985464
Ge       2.76999970       0.00000043      17.93324157
Ge       2.76999965      -0.00000023      23.46902610
Ge       4.15500050       1.38499999      13.78124792
Ge       4.15499996       1.38500025      19.31895606
Ge       4.15499988       1.38500019      24.85229846
Ge       5.53999985       2.76999957      12.39985483
Ge       5.54000041       2.77000032      17.93324196
Ge       5.53999976       2.76999990      23.46902519
Ge       6.92499997       4.15499999      13.78124820
Ge       6.92499958       4.15499984      19.31895675
Ge       6.92499977       4.15500027      24.85229940
Ge       5.54000033      -0.00000030      15.16214221
Ge       5.53999931      -0.00000043      20.70514152
Ge       6.92499975       1.38499961      16.54656275
Ge       6.92499934       1.38499981      22.08870606
Ge       2.76999976       2.77000045      15.16214221
Ge       2.76999989       2.76999974      20.70514088
Ge       4.15500075       4.15499942      16.54656275
Ge       4.15500002       4.15499945      22.08870637
Ge       2.76999994       5.53999993      12.39985427
Ge       2.76999947       5.54000048      17.93324168
Ge       2.76999977       5.53999927      23.46902592
Ge       4.15500046       6.92499965      13.78124844
Ge       4.15500035       6.92499978      19.31895512
Ge       4.15500015       6.92499957      24.85229929
Ge       5.54000000       8.31000043      12.39985488
Ge       5.54000027       8.31000006      17.93324139
Ge       5.54000052       8.31000071      23.46902519
Ge       6.92499992       9.69499963      13.78124738
Ge       6.92499948       9.69499996      19.31895493
Ge       6.92500006       9.69500033      24.85229889
Ge       5.54000010       5.53999963      15.16214262
Ge       5.54000010       5.54000006      20.70514170
Ge       6.92499997       6.92499954      16.54656251
Ge       6.92499987       6.92499960      22.08870567
Ge       2.77000052       8.31000048      15.16214170
Ge       2.76999978       8.31000022      20.70514188
Ge       4.15499958       9.69499988      16.54656261
Ge       4.15500004       9.69499936      22.08870603
160
Lattice="11.079999923706055 0.0 0.0 0.0 11.079999923706055 0.0 0.0 0.0 25.867603302001953" Properties=species:S:1:pos:R:3 energy=-720.2136356725338 pbc="T T T"
Ge       0.69320516       0.69308488      14.23089485
Ge       2.07820515       2.07808495      15.64339397
Ge       3.46320530       3.46308478      14.23089485
Ge       4.84820529       4.84808477      15.64339397
Ge       3.46320530       0.69308488      17.05589464
Ge       4.84820529       2.07808495      18.46839376
Ge       0.69320516       3.46308478      17.05589464
Ge       2.07820515       4.84808477      18.46839376
Ge       0.69320516       6.23308509      14.23089485
Ge       2.07820515       7.61808508      15.64339397
Ge       3.46320530       9.00308507      14.23089485
Ge       4.84820529      10.38808506      15.64339397
Ge       3.46320530       6.23308509      17.05589464
Ge       4.84820529       7.61808508      18.46839376
Ge       0.69320516       9.00308507      17.05589464
Ge       2.07820515      10.38808506      18.46839376
Ge       6.23320529       0.69308488      14.23089485
Ge       7.61820528       2.07808495      15.64339397
Ge       9.00320527       3.46308478      14.23089485
Ge      10.38820526       4.84808477      15.64339397
Ge       9.00320527       0.69308488      17.05589464
Ge      10.38820526       2.07808495      18.46839376
Ge       6.23320529       3.46308478      17.05589464
Ge       7.61820528       4.84808477      18.46839376
Ge       6.23320529       6.23308509      14.23089485
Ge       7.61820528       7.61808508      15.64339397
Ge       9.00320527       9.00308507      14.23089485
Ge      10.38820526      10.38808506      15.64339397
Ge       9.00320527       6.23308509      17.05589464
Ge      10.38820526       7.61808508      18.46839376
Ge       6.23320529       9.00308507      17.05589464
Ge       7.61820528      10.38808506      18.46839376
Ge       0.69320516       0.69308488      19.88089442
Ge       2.07820515       2.07808495      21.29339354
Ge       3.46320530       3.46308478      19.88089442
Ge       4.84820529       4.84808477      21.29339354
Ge       3.46320530       0.69308488      22.70589421
Ge       4.84820529       2.07808495      24.11839333
Ge       0.69320516       3.46308478      22.70589421
Ge       2.07820515       4.84808477      24.11839333
Ge       0.69320516       6.23308509      19.88089442
Ge       2.07820515       7.61808508      21.29339354
Ge       3.46320530       9.00308507      19.88089442
Ge       4.84820529      10.38808506      21.29339354
Ge       3.46320530       6.23308509      22.70589421
Ge       4.84820529       7.61808508      24.11839333
Ge       0.69320516       9.00308507      22.70589421
Ge       2.07820515      10.38808506      24.11839333
Ge       6.23320529       0.69308488      19.88089442
Ge       7.61820528       2.07808495      21.29339354
Ge       9.00320527       3.46308478      19.88089442
Ge      10.38820526       4.84808477      21.29339354
Ge       9.00320527       0.69308488      22.70589421
Ge      10.38820526       2.07808495      24.11839333
Ge       6.23320529       3.46308478      22.70589421
Ge       7.61820528       4.84808477      24.11839333
Ge       6.23320529       6.23308509      19.88089442
Ge       7.61820528       7.61808508      21.29339354
Ge       9.00320527       9.00308507      19.88089442
Ge      10.38820526      10.38808506      21.29339354
Ge       9.00320527       6.23308509      22.70589421
Ge      10.38820526       7.61808508      24.11839333
Ge       6.23320529       9.00308507      22.70589421
Ge       7.61820528      10.38808506      24.11839333
Ge       4.84126131       2.04630623      12.83093003
Ge       0.64882881       0.74864861      10.40396967
Ge       3.54360345       0.64882881      11.44666411
Ge       8.33495521       2.94468456      10.15228531
Ge       7.63621624       4.84126131      12.83093003
Ge       9.54437543       5.90173217      10.63048752
Ge       8.93387377       9.03369353      10.42194740
Ge       4.54180171       5.14072059       9.36127599
Ge       6.53819822       1.04810814      10.92531689
Ge       4.84126131       7.63621624      12.83093003
Ge       5.04090083      10.23153131      12.75901988
Ge       3.14432441       8.73423425       9.50509552
Ge       2.14612615       2.14612615       9.10959086
Ge       0.44918917       6.83765750      10.87138447
Ge       2.84486480       3.14432441      11.23093444
Ge       3.14432441       6.03909876      12.21969570
Si       0.69305508       0.69305442      -0.45352143
Si       2.07805507       2.07805441       0.90397857
Si       3.46305506       3.46305440      -0.45352143
Si       4.84805505       4.84805439       0.90397857
Si       3.46305506       0.69305442       2.26147852
Si       4.84805505       2.07805441       3.61897828
Si       0.69305508       3.46305440       2.26147852
Si       2.07805507       4.84805439       3.61897828
Si       0.69305508       6.23305405      -0.45352143
Si       2.07805507       7.61805404       0.90397857
Si       3.46305506       9.00305403      -0.45352143
Si       4.84805505      10.38805402       0.90397857
Si       3.46305506       6.23305405       2.26147852
Si       4.84805505       7.61805404       3.61897828
Si       0.69305508       9.00305403       2.26147852
Si       2.07805507      10.38805402       3.61897828
Si       6.23305537       0.69305442      -0.45352143
Si       7.61805536       2.07805441       0.90397857
Si       9.00305535       3.46305440      -0.45352143
Si      10.38805534       4.84805439       0.90397857
Si       9.00305535       0.69305442       2.26147852
Si      10.38805534       2.07805441       3.61897828
Si       6.23305537       3.46305440       2.26147852
Si       7.61805536       4.84805439       3.61897828
Si       6.23305537       6.23305405      -0.45352143
Si       7.61805536       7.61805404       0.90397857
Si       9.00305535       9.00305403      -0.45352143
Si      10.38805534      10.38805402       0.90397857
Si       9.00305535       6.23305405       2.26147852
Si      10.38805534       7.61805404       3.61897828
Si       6.23305537       9.00305403       2.26147852
Si       7.61805536      10.38805402       3.61897828
Si       0.69305508       0.69305442       4.97647842
Si       2.07805507       2.07805441       6.33397818
Si       3.46305506       3.46305440       4.97647842
Si       4.84805505       4.84805439       6.33397818
Si       3.46305506       0.69305442       7.69147794
Si       4.84805505       2.07805441       9.04897847
Si       0.69305508       3.46305440       7.69147794
Si       2.07805507       4.84805439       9.04897847
Si       0.69305508       6.23305405       4.97647842
Si       2.07805507       7.61805404       6.33397818
Si       3.46305506       9.00305403       4.97647842
Si       4.84805505      10.38805402       6.33397818
Si       3.46305506       6.23305405       7.69147794
Si       4.84805505       7.61805404       9.04897847
Si       0.69305508       9.00305403       7.69147794
Si       2.07805507      10.38805402       9.04897847
Si       6.23305537       0.69305442       4.97647842
Si       7.61805536       2.07805441       6.33397818
Si       9.00305535       3.46305440       4.97647842
Si      10.38805534       4.84805439       6.33397818
Si       9.00305535       0.69305442       7.69147794
Si      10.38805534       2.07805441       9.04897847
Si       6.23305537       3.46305440       7.69147794
Si       7.61805536       4.84805439       9.04897847
Si       6.23305537       6.23305405       4.97647842
Si       7.61805536       7.61805404       6.33397818
Si       9.00305535       9.00305403       4.97647842
Si      10.38805534      10.38805402       6.33397818
Si       9.00305535       6.23305405       7.69147794
Si      10.38805534       7.61805404       9.04897847
Si       6.23305537       9.00305403       7.69147794
Si       7.61805536      10.38805402       9.04897847
Si       7.53639648      10.53099125      12.88486245
Si      10.33135107       4.94108107      12.75901988
Si      10.43117083      10.53099125      11.75228089
Si       0.67166971       4.50939723      10.83132852
Si      10.43117083       2.04630623      12.84890776
Si       4.84126131       4.84126131      11.26688913
Si      10.53099125       7.53639648      12.88486245
Si       7.73603599       2.14612615      11.59048364
Si       1.94648647       4.94108107      12.88486245
Si       0.44918917       9.43297323      12.39947068
Si       2.14612615       7.63621624      10.94329385
Si       2.04630623      10.43117083      12.84890776
Si      10.37940583       4.23149735       9.28379059
Si       5.52371798       9.61816013      10.45373529
Si       7.23693720       8.33495521      11.15902429
Si       6.53819822       6.93747726      10.56576769
160
Lattice="11.079999923706055 0.0 0.0 0.0 11.079999923706055 0.0 0.0 0.0 25.867603302001953" Properties=species:S:1:pos:R:3 energy=-691.0188043637902 pbc="T T T"
Ge       0.69320516       0.69308488      14.23089485
Ge       2.07820515       2.07808495      15.64339397
Ge       3.46320530       3.46308478      14.23089485
Ge       4.84820529       4.84808477      15.64339397
Ge       3.46320530       0.69308488      17.05589464
Ge       4.84820529       2.07808495      18.46839376
Ge       0.69320516       3.46308478      17.05589464
Ge       2.07820515       4.84808477      18.46839376
Ge       0.69320516       6.23308509      14.23089485
Ge       2.07820515       7.61808508      15.64339397
Ge       3.46320530       9.00308507      14.23089485
Ge       4.84820529      10.38808506      15.64339397
Ge       3.46320530       6.23308509      17.05589464
Ge       4.84820529       7.61808508      18.46839376
Ge       0.69320516       9.00308507      17.05589464
Ge       2.07820515      10.38808506      18.46839376
Ge       6.23320529       0.69308488      14.23089485
Ge       7.61820528       2.07808495      15.64339397
Ge       9.00320527       3.46308478      14.23089485
Ge      10.38820526       4.84808477      15.64339397
Ge       9.00320527       0.69308488      17.05589464
Ge      10.38820526       2.07808495      18.46839376
Ge       6.23320529       3.46308478      17.05589464
Ge       7.61820528       4.84808477      18.46839376
Ge       6.23320529       6.23308509      14.23089485
Ge       7.61820528       7.61808508      15.64339397
Ge       9.00320527       9.00308507      14.23089485
Ge      10.38820526      10.38808506      15.64339397
Ge       9.00320527       6.23308509      17.05589464
Ge      10.38820526       7.61808508      18.46839376
Ge       6.23320529       9.00308507      17.05589464
Ge       7.61820528      10.38808506      18.46839376
Ge       0.69320516       0.69308488      19.88089442
Ge       2.07820515       2.07808495      21.29339354
Ge       3.46320530       3.46308478      19.88089442
Ge       4.84820529       4.84808477      21.29339354
Ge       3.46320530       0.69308488      22.70589421
Ge       4.84820529       2.07808495      24.11839333
Ge       0.69320516       3.46308478      22.70589421
Ge       2.07820515       4.84808477      24.11839333
Ge       0.69320516       6.23308509      19.88089442
Ge       2.07820515       7.61808508      21.29339354
Ge       3.46320530       9.00308507      19.88089442
Ge       4.84820529      10.38808506      21.29339354
Ge       3.46320530       6.23308509      22.70589421
Ge       4.84820529       7.61808508      24.11839333
Ge       0.69320516       9.00308507      22.70589421
Ge       2.07820515      10.38808506      24.11839333
Ge       6.23320529       0.69308488      19.88089442
Ge       7.61820528       2.07808495      21.29339354
Ge       9.00320527       3.46308478      19.88089442
Ge      10.38820526       4.84808477      21.29339354
Ge       9.00320527       0.69308488      22.70589421
Ge      10.38820526       2.07808495      24.11839333
Ge       6.23320529       3.46308478      22.70589421
Ge       7.61820528       4.84808477      24.11839333
Ge       6.23320529       6.23308509      19.88089442
Ge       7.61820528       7.61808508      21.29339354
Ge       9.00320527       9.00308507      19.88089442
Ge      10.38820526      10.38808506      21.29339354
Ge       9.00320527       6.23308509      22.70589421
Ge      10.38820526       7.61808508      24.11839333
Ge       6.23320529       9.00308507      22.70589421
Ge       7.61820528      10.38808506      24.11839333
Ge       7.63621624       4.84126131      12.79497534
Ge       9.13197187       1.73266130      11.02931328
Ge       3.58076690       7.70666582      10.41378649
Ge       9.43297323       3.74324330      10.29610483
Ge       9.12716005       7.32316684      10.46339717
Ge       4.84126131       4.84126131      11.26688913
Ge       0.84846845       4.54180171      13.01070501
Ge       7.53639648       6.13891918      10.54778996
Ge       6.23873894       9.03369353      11.44666411
Ge       2.04630623      10.43117083      12.83093003
Ge       9.53279299       0.04990991      11.78823635
Ge       3.04450432       0.24954954      10.88936220
Ge       3.01885924       4.55989522      12.76057867
Ge      10.43117083       7.63621624      12.83093003
Ge       1.76436474       1.29918145       9.52742814
Ge       0.64882881       9.03369353      11.44666411
Si       0.69305508       0.69305442      -0.45352143
Si       2.07805507       2.07805441       0.90397857
Si       3.46305506       3.46305440      -0.45352143
Si       4.84805505       4.84805439       0.90397857
Si       3.46305506       0.69305442       2.26147852
Si       4.84805505       2.07805441       3.61897828
Si       0.69305508       3.46305440       2.26147852
Si       2.07805507       4.84805439       3.61897828
Si       0.69305508       6.23305405      -0.45352143
Si       2.07805507       7.61805404       0.90397857
Si       3.46305506       9.00305403      -0.45352143
Si       4.84805505      10.38805402       0.90397857
Si       3.46305506       6.23305405       2.26147852
Si       4.84805505       7.61805404       3.61897828
Si       0.69305508       9.00305403       2.26147852
Si       2.07805507      10.38805402       3.61897828
Si       6.23305537       0.69305442      -0.45352143
Si       7.61805536       2.07805441       0.90397857
Si       9.00305535       3.46305440      -0.45352143
Si      10.38805534       4.84805439       0.90397857
Si       9.00305535       0.69305442       2.26147852
Si      10.38805534       2.07805441       3.61897828
Si       6.23305537       3.46305440       2.26147852
Si       7.61805536       4.84805439       3.61897828
Si       6.23305537       6.23305405      -0.45352143
Si       7.61805536       7.61805404       0.90397857
Si       9.00305535       9.00305403      -0.45352143
Si      10.38805534      10.38805402       0.90397857
Si       9.00305535       6.23305405       2.26147852
Si      10.38805534       7.61805404       3.61897828
Si       6.23305537       9.00305403       2.26147852
Si       7.61805536      10.38805402       3.61897828
Si       0.69305508       0.69305442       4.97647842
Si       2.07805507       2.07805441       6.33397818
Si       3.46305506       3.46305440       4.97647842
Si       4.84805505       4.84805439       6.33397818
Si       3.46305506       0.69305442       7.69147794
Si       4.84805505       2.07805441       9.04897847
Si       0.69305508       3.46305440       7.69147794
Si       2.07805507       4.84805439       9.04897847
Si       0.69305508       6.23305405       4.97647842
Si       2.07805507       7.61805404       6.33397818
Si       3.46305506       9.00305403       4.97647842
Si       4.84805505      10.38805402       6.33397818
Si       3.46305506       6.23305405       7.69147794
Si       4.84805505       7.61805404       9.04897847
Si       0.69305508       9.00305403       7.69147794
Si       2.07805507      10.38805402       9.04897847
Si       6.23305537       0.69305442       4.97647842
Si       7.61805536       2.07805441       6.33397818
Si       9.00305535       3.46305440       4.97647842
Si      10.38805534       4.84805439       6.33397818
Si       9.00305535       0.69305442       7.69147794
Si      10.38805534       2.07805441       9.04897847
Si       6.23305537       3.46305440       7.69147794
Si       7.61805536       4.84805439       9.04897847
Si       6.23305537       6.23305405       4.97647842
Si       7.61805536       7.61805404       6.33397818
Si       9.00305535       9.00305403       4.97647842
Si      10.38805534      10.38805402       6.33397818
Si       9.00305535       6.23305405       7.69147794
Si      10.38805534       7.61805404       9.04897847
Si       6.23305537       9.00305403       7.69147794
Si       7.61805536      10.38805402       9.04897847
Si       2.34576567       7.63621624      11.78823635
Si       4.74144155       9.03369353      10.04442047
Si      10.43117083       2.04630623      12.84890776
Si      10.93027028       5.14072059      10.83542901
Si       5.34050144       2.96937566      11.29857064
Si       7.53639648      10.43117083      12.86688472
Si       7.05006028       0.56629252      10.08811591
Si      10.43117083       9.93207203      10.58374465
Si       4.74144155       1.04810814      13.22643469
Si       2.08789251       5.97524610      10.78810565
Si       7.41530593       3.65738580      10.87602692
Si       2.71627568       2.79229442      10.48935001
Si       4.94108107       7.53639648      12.86688472
Si       7.63621624       7.63621624      11.89610119
Si       4.74144155       0.24954954      11.60846137
Si       6.73783774       2.84486480      12.29160508
160
Lattice="11.079999923706055 0.0 0.0 0.0 11.079999923706055 0.0 0.0 0.0 25.867603302001953" Properties=species:S:1:pos:R:3 energy=-777.9293488991417 pbc="T T T"
Ge       0.69419997       0.61445425      14.76440705
Ge       2.05029940       2.03270268      16.11597424
Ge       3.45194793       3.42229055      14.77810636
Ge       4.84071355       4.81793865      16.12309712
Ge       3.43589657       0.65990772      17.48598934
Ge       4.83022148       2.04809229      18.83322320
Ge       0.68426792       3.42319420      17.49096741
Ge       2.06396498       4.81720697      18.85014789
Ge       0.68067228       6.20059330      14.78027503
Ge       2.07866804       7.58090069      16.13364289
Ge       3.50788247       8.93245596      14.78186743
Ge       4.85158942      10.35232397      16.15611016
Ge       3.46002736       6.19606769      17.49456485
Ge       4.83724873       7.58762396      18.85897974
Ge       0.67979369       8.96089224      17.48784207
Ge       2.05104020      10.35941799      18.85292888
Ge       6.22181675       0.65789771      14.77696345
Ge       7.61151109       2.05387821      16.11592831
Ge       8.98988036       3.42272663      14.73002822
Ge      10.37568717       4.78501963      16.10909208
Ge       8.99411139       0.67927554      17.48997688
Ge      10.37216935       2.05830870      18.86130546
Ge       6.22544695       3.43371013      17.48325155
Ge       7.60258896       4.81810552      18.85367051
Ge       6.20645747       6.21417813      14.75124902
Ge       7.60588327       7.58333379      16.11913989
Ge       8.97164724       8.99176049      14.76059657
Ge      10.36410729      10.34986144      16.13824866
Ge       8.98634024       6.17386241      17.46096995
Ge      10.36684506       7.56132109      18.82377910
Ge       6.24326730       8.96726782      17.51198928
Ge       7.62590904      10.36639291      18.86161055
Ge       0.67216064       0.66741770      20.21706137
Ge       2.06472990       2.05569995      21.56717908
Ge       3.45475119       3.43320257      20.20414228
Ge       4.83374042       4.81614972      21.57384240
Ge       3.44940577       0.67218683      22.92727811
Ge       4.83027762       2.05325464      24.30217279
Ge       0.68394622       3.44141636      22.93004580
Ge       2.07000474       4.82850706      24.29220553
Ge       0.67609192       6.20555315      20.20668880
Ge       2.05733939       7.59908796      21.56639651
Ge       3.44765677       8.98124344      20.20839078
Ge       4.83426475      10.36840143      21.56587227
Ge       3.44735821       6.21276054      22.91973442
Ge       4.83216039       7.59633859      24.28903863
Ge       0.68337088       8.98461429      22.93717200
Ge       2.06786534      10.37211578      24.30104856
Ge       6.21727605       0.67080609      20.20060246
Ge       7.59489282       2.05260549      21.57315674
Ge       8.98714289       3.44133049      20.22318618
Ge      10.37486453       4.82864058      21.57913620
Ge       8.98464210       0.66275425      22.92271345
Ge      10.37175259       2.05275382      24.28454863