83
Lattice="11.55144596 0.0 0.0 0.0 12.73137188 0.0 0.0 0.0 18.60061646" Properties=species:S:1:pos:R:3:forces:R:3 energy=-377.08340986 stress="0.0032505580860364533 -2.8294327486419405e-05 -1.2749967597080544e-06 -2.8294327486419405e-05 0.006613637081228342 0.0008649782751841788 -1.2749967597080544e-06 0.0008649782751841788 0.005434185524223073" free_energy=-377.47768274 pbc="T T T"
Si       2.56698924       3.58360097       0.00000000       0.03705741       0.55619739       0.57283139
Si       0.64174820       3.58360097       3.33461510      -0.18073643       0.43249554       0.22452670
Si       6.41747095       3.58360097       0.00000000      -0.00794468       0.54523572       0.51545309
Si       4.49223015       3.58360097       3.33461510       0.02277756       0.12895076       0.20435595
Si      10.26795336       3.58360097       0.00000000      -0.03583848       0.70635904       0.52011999
Si       8.34271222       3.58360097       3.33461510       0.02850849       0.39120253       0.40264490
Si       2.56698924       9.94928691       0.00000000      -0.01169302       0.73935268       0.58685730
Si       0.64174820       9.94928691       3.33461510      -0.05635268      -0.06892944       0.00118273
Si       6.41747095       9.94928691       0.00000000       0.02000898       0.75986576       0.59005958
Si       4.49223015       9.94928691       3.33461510      -0.10889972       0.29820911       0.37241836
Si      10.26795336       9.94928691       0.00000000       0.00467435       0.63873394       0.57583178
Si       8.34271222       9.94928691       3.33461510       0.03296648       0.30585994       0.10964780
Si       0.64174439       0.40075812       1.11154066      -0.04005898       0.00237949      -0.63919523
Si      10.26794932       0.40075812       4.44615595      -0.42214550      -0.34688740      -0.76835291
Si       4.49222634       0.40075812       1.11154066      -0.01142253      -0.01514433      -0.62949618
Si       2.56698542       0.40075812       4.44615595       0.44219087       0.25099757       0.56755077
Si       8.34270806       0.40075812       1.11154066       0.04893692      -0.00417739      -0.64117348
Si       6.41746749       0.40075812       4.44615595      -0.15221962       0.37625331       0.05471718
Si       0.64174439       6.76644394       1.11154066      -0.03786574       0.07035706      -0.36229559
Si       4.49222634       6.76644394       1.11154066      -0.00983363       0.10865309      -0.47246941
Si       2.56698542       6.76644394       4.44615595      -0.91971919       0.33209088      -0.25782311
Si       8.34270806       6.76644394       1.11154066       0.03533103       0.04695258      -0.34240386
Si       6.41746749       6.76644394       4.44615595       0.46011987       0.31580540       0.42015900
Si       2.56698924       5.96492794       0.00000000      -0.10630386      -0.66157858       0.57805876
Si       0.64174820       5.96492794       3.33461510       0.03943144      -0.00756146      -0.21890344
Si       6.41747095       5.96492794       0.00000000       0.07711197      -0.67620826       0.62314156
Si       4.49223015       5.96492794       3.33461510       0.05197456      -0.43731092       0.44170839
Si      10.26795336       5.96492794       0.00000000       0.02159306      -0.74382285       0.51865685
Si       8.34271222       5.96492794       3.33461510       0.07320496       0.10522445      -0.18844726
Si       2.56698924      12.33061388       0.00000000       0.04585375      -0.67441120       0.54064359
Si       0.64174820      12.33061388       3.33461510      -0.01789833      -0.15364063       0.46771393
Si       6.41747095      12.33061388       0.00000000      -0.01420674      -0.67744873       0.54468752
Si       4.49223015      12.33061388       3.33461510      -0.01462432      -0.10707130       0.22983208
Si      10.26795336      12.33061388       0.00000000      -0.03877429      -0.64437273       0.55236223
Si       8.34271222      12.33061388       3.33461510       0.10492807      -0.26745744       0.37527883
Si       0.64174439       2.78208485       1.11154066       0.04405431       0.03008000      -0.55836067
Si      10.26794932       2.78208485       4.44615595       0.47272103       0.78252590      -1.65180173
Si       4.49222634       2.78208485       1.11154066      -0.00102384      -0.03997044      -0.65795004
Si       2.56698542       2.78208485       4.44615595      -0.05049173       0.26563468       0.53511952
Si       8.34270806       2.78208485       1.11154066      -0.03013085      -0.00834079      -0.61624545
Si       6.41746749       2.78208485       4.44615595      -0.17456386      -0.41989718       0.25077478
Si       0.64174439       9.14777091       1.11154066       0.01240435       0.02823540      -0.60745105
Si      10.26794932       9.14777091       4.44615595       0.33010841      -0.18597106       0.71879230
Si       4.49222634       9.14777091       1.11154066      -0.03112220      -0.03845731      -0.67754947
Si       2.56698542       9.14777091       4.44615595       0.04513837      -0.04869154      -0.27928918
Si       8.34270806       9.14777091       1.11154066       0.02367815      -0.04946761      -0.63923251
Si       6.41746749       9.14777091       4.44615595      -0.17597461       0.43289154      -0.60895044
Ge       4.49501925       1.61668218       6.44615561       0.40585128      -0.53224092      -0.32847433
Ge       4.49501925       5.43609375       7.73477135       0.23726262       0.19545751      -0.15481196
Ge       4.49501925       9.25550544       9.02338579      -0.21812402      -0.29373112       0.15492068
Ge       4.49501925       0.34354499      10.31200097       0.26938780      -0.12014176       0.09328021
Ge       4.49501925       4.16295669      11.60061633      -0.29218209       0.27131375       0.17002750
Ge      10.27074188       1.61668218       6.44615561      -0.12097338      -0.63732690       1.75968679
Ge      10.27074188       5.43609375       7.73477135       0.29789862       0.07378056      -0.05521143
Ge      10.27074188       9.25550544       9.02338579      -0.04070277      -0.10502979       0.06879146
Ge      10.27074188       0.34354499      10.31200097       0.33384748      -0.22762052       0.25680153
Ge      10.27074188       4.16295669      11.60061633      -0.28784860       0.35330476       0.12565812
Ge       3.05108850       3.52638784       7.09046367      -0.14698939      -0.04589104      -1.03268213
Ge       3.05108850       7.34579927       8.37907810      -0.07298138       0.16959385       0.01629886
Ge       3.05108850      11.16521096       9.66769347      -0.23173303      -0.13417489      -0.05503902
Ge       3.05108850       2.25325078      10.95630865       0.21643092       0.11465807      -0.20504634
Ge       8.82681114       3.52638784       7.09046367      -0.37415561      -0.19939369      -0.38975426
Ge       8.82681114       7.34579927       8.37907810       0.06618054      -0.10692196       0.13080837
Ge       8.82681114      11.16521096       9.66769347      -0.11622381      -0.08284008      -0.13954716
Ge       8.82681114       2.25325078      10.95630865       0.22855850       0.07239334      -0.34355340
Ge       1.60715764       7.98236799       6.44615561       0.59623062      -0.47648171       0.14945364
Ge       1.60715764      11.80177969       7.73477135       0.42500607       0.30632843      -0.50539587
Ge       1.60715764       2.88981937       9.02338579      -0.05097268      -0.16151557       0.06936199
Ge       1.60715764       6.70923132      10.31200097       0.27970956      -0.16806589       0.21415348
Ge       1.60715764      10.52864224      11.60061633      -0.25081907       0.31476453       0.22372289
Ge       7.38288039       7.98236799       6.44615561      -0.15483089      -0.69174291       0.45506067
Ge       7.38288039      11.80177969       7.73477135      -0.00195607       0.20038943      -0.32945827
Ge       7.38288039       2.88981937       9.02338579      -0.18890008      -0.13897418       0.20450218
Ge       7.38288039       6.70923132      10.31200097       0.27620261      -0.13947810       0.11494030
Ge       7.38288039      10.52864224      11.60061633      -0.26336965       0.32457117       0.15650947
Ge       5.93894965       9.89207429       7.09046367       0.26127808      -0.09677606      -0.63811435
Ge       5.93894965       0.98011359       8.37907810      -0.06131675      -0.21451981       0.17941908
Ge       5.93894965       4.79952502       9.66769347      -0.27172464      -0.16370270      -0.17047500
Ge       5.93894965       8.61893672      10.95630865       0.24874159       0.15443618      -0.29926443
Ge       0.16322690       9.89207429       7.09046367      -0.86738498      -0.23942476      -0.87535926
Ge       0.16322690       0.98011359       8.37907810      -0.05039045       0.11489304       0.04045881
Ge       0.16322690       4.79952502       9.66769347      -0.15009434      -0.12498909      -0.07382308
Ge       0.16322690       8.61893672      10.95630865       0.24615782       0.06137363      -0.26558160
8
Lattice="5.468728 0.0 0.0 0.0 5.468728 0.0 0.0 0.0 5.468728" Properties=species:S:1:pos:R:3:forces:R:3 energy=-43.38895167 stress="9.01182167593392e-05 1.6539999183590634e-09 -9.967690074035564e-09 1.6539999183590634e-09 9.011550170286945e-05 5.728457075735655e-08 -9.967690074035564e-09 5.728457075735655e-08 9.011633182358318e-05" free_energy=-43.38895516 pbc="T T T"
Si       1.36718200       4.10154600       1.36718200       0.00000019       0.00000051       0.00000003
Si       0.00000000       0.00000000       2.73436400      -0.00000031       0.00000009       0.00000004
Si       1.36718200       1.36718200       4.10154600       0.00000033      -0.00000010       0.00000011
Si       0.00000000       2.73436400       0.00000000      -0.00000023      -0.00000017      -0.00000021
Si       4.10154600       4.10154600       4.10154600       0.00000011      -0.00000002       0.00000005
Si       2.73436400       0.00000000       0.00000000      -0.00000002       0.00000004      -0.00000003
Si       4.10154600       1.36718200       1.36718200      -0.00000004      -0.00000012      -0.00000020
Si       2.73436400       2.73436400       2.73436400      -0.00000004      -0.00000022       0.00000022
8
Lattice="5.762862 0.0 0.0 0.0 5.762862 0.0 0.0 0.0 5.762862" Properties=species:S:1:pos:R:3:forces:R:3 energy=-36.10536355 stress="0.00120119944643746 7.744464523395946e-08 1.2252082414108837e-08 7.744464523395946e-08 0.0012011136132039607 1.4180708734006763e-08 1.2252082414108837e-08 1.4180708734006763e-08 0.0012009119063535396" free_energy=-36.11066345 pbc="T T T"
Ge       2.88143100       0.00000000       2.88143100       0.00000370      -0.00000214       0.00000096
Ge       1.44071550       1.44071550       1.44071550      -0.00000105      -0.00000264      -0.00000291
Ge       2.88143100       2.88143100       0.00000000       0.00000383      -0.00000028      -0.00000214
Ge       1.44071550       4.32214650       4.32214650       0.00000480       0.00000577       0.00000595
Ge       0.00000000       0.00000000       0.00000000      -0.00000315       0.00000088      -0.00000075
Ge       4.32214650       1.44071550       4.32214650      -0.00000256      -0.00000679       0.00000667
Ge       0.00000000       2.88143100       2.88143100      -0.00000149      -0.00000078      -0.00000138
Ge       4.32214650       4.32214650       1.44071550      -0.00000408       0.00000598      -0.00000639
1
Lattice="20.0 0.0 0.0 0.0 20.0 0.0 0.0 0.0 20.0" Properties=species:S:1:pos:R:3:forces:R:3 energy=-0.00555575 stress="1.3398647640533592e-06 -1.2483018251766518e-11 5.373939357385486e-09 -1.2483018251766518e-11 1.3398647640533592e-06 5.373939357385486e-09 5.373939357385486e-09 5.373939357385486e-09 1.355793095342613e-06" free_energy=-0.00555575 pbc="T T T"
Mg      10.00000000      10.00000000      10.00000000       0.00000001      -0.00000002      -0.00000002
1
Lattice="20.0 0.0 0.0 0.0 20.0 0.0 0.0 0.0 20.0" Properties=species:S:1:pos:R:3:forces:R:3 energy=-1.31953966 stress="1.0565626648295178e-06 -5.6173582132949326e-11 9.986414601413214e-11 -5.6173582132949326e-11 1.0566937365211615e-06 1.7476225552473124e-10 9.986414601413214e-11 1.7476225552473124e-10 1.0570682270687145e-06" free_energy=-1.39667082 pbc="T T T"
C       10.00000000      10.00000000      10.00000000       0.00000001      -0.00000003      -0.00000000
1
Lattice="20.0 0.0 0.0 0.0 20.0 0.0 0.0 0.0 20.0" Properties=species:S:1:pos:R:3:forces:R:3 energy=-0.88377983 stress="1.7815763648921172e-07 4.369056388118281e-11 1.3107169164354842e-10 4.369056388118281e-11 1.8039209675627794e-07 -2.296875358325039e-09 1.3107169164354842e-10 -2.296875358325039e-09 1.7753348557662341e-07" free_energy=-0.96091099 pbc="T T T"
Si      10.00000000      10.00000000      10.00000000      -0.00000000       0.00000000      -0.00000000
1
Lattice="20.0 0.0 0.0 0.0 20.0 0.0 0.0 0.0 20.0" Properties=species:S:1:pos:R:3:forces:R:3 energy=-0.83713367 stress="1.7963687415204607e-06 5.242867665741937e-10 7.521018496689326e-09 5.242867665741937e-10 1.7926612850996859e-06 6.0417808338549946e-09 7.521018496689326e-09 6.0417808338549946e-09 1.815218099080628e-06" free_energy=-0.91426483 pbc="T T T"
Ge      10.00000000      10.00000000      10.00000000      -0.00000000       0.00000002      -0.00000000
1
Lattice="20.0 0.0 0.0 0.0 20.0 0.0 0.0 0.0 20.0" Properties=species:S:1:pos:R:3:forces:R:3 energy=-1.60485965 stress="5.967475667711354e-06 3.1207545629416294e-11 1.0360905148966208e-09 3.1207545629416294e-11 5.967319629983207e-06 9.674339145119051e-10 1.0360905148966208e-09 9.674339145119051e-10 5.971014603385729e-06" free_energy=-1.68199081 pbc="T T T"
O       10.00000000      10.00000000      10.00000000       0.00000000      -0.00000001       0.00000001
1
Lattice="20.0 0.0 0.0 0.0 20.0 0.0 0.0 0.0 20.0" Properties=species:S:1:pos:R:3:forces:R:3 energy=-0.84147182 stress="1.7229685942000736e-07 2.3717734678356385e-10 1.7476225552473124e-10 2.3717734678356385e-10 1.724653801664062e-07 4.993207300706607e-11 1.7476225552473124e-10 4.993207300706607e-11 1.7260269336717563e-07" free_energy=-0.91860298 pbc="T T T"
Se      10.00000000      10.00000000      10.00000000      -0.00000000       0.00000000       0.00000000
1
Lattice="20.0 0.0 0.0 0.0 20.0 0.0 0.0 0.0 20.0" Properties=species:S:1:pos:R:3:forces:R:3 energy=-1.46970031 stress="4.5164184185803844e-07 -1.810037646506145e-10 1.1297131517848698e-09 -1.810037646506145e-10 4.5153573620289845e-07 1.6103093544778806e-09 1.1297131517848698e-09 1.6103093544778806e-09 4.567598793412627e-07" free_energy=-1.47979865 pbc="T T T"
Pd      10.00000000      10.00000000      10.00000000       0.00001086      -0.00000953       0.00000108
4
Lattice="3.850482 0.0 0.0 -1.925241 3.334615 0.0 0.0 0.0 6.365686" Properties=species:S:1:pos:R:3:forces:R:3 energy=-21.62954669 stress="-0.0006945323352954521 -7.19152922993395e-07 -1.5291697358413982e-09 -7.19152922993395e-07 -0.0006954255514249482 8.550867502460064e-10 -1.5291697358413982e-09 8.550867502460064e-10 0.0013442963416383912" free_energy=-21.63011147 pbc="T T T"
Si       1.92524293       1.11153722       3.58360113      -0.00004520       0.00002662      -0.00778610
Si      -0.00000193       2.22307778       0.40075813       0.00004522      -0.00002663      -0.00778609
Si       1.92524293       1.11153722       5.96492787      -0.00004522       0.00002662       0.00778614
Si      -0.00000193       2.22307778       2.78208487       0.00004521      -0.00002662       0.00778605
8
Lattice="4.08413655 -1.46e-06 -3e-08 -2.04206956 3.53696524 -3e-08 -1e-08 -5e-08 13.2636868" Properties=species:S:1:pos:R:3:forces:R:3 energy=-35.97153379 stress="-8.123686134866363e-06 -3.401622473606376e-09 -8.113961863648236e-11 -3.401622473606376e-09 -8.135775938043198e-06 1.1172301335331033e-09 -8.113961863648236e-11 1.1172301335331033e-09 3.363343298137334e-06" free_energy=-35.97824346 pbc="T T T"
Ge       0.00000046      -0.00000029      12.02663857      -0.00000050       0.00000032      -0.00014206
Ge      -0.00000047       0.00000024       1.23704836       0.00000047      -0.00000028       0.00014138
Ge      -0.00000049       0.00000026       5.39479517       0.00000062      -0.00000036      -0.00014171
Ge       0.00000048      -0.00000031       7.86889150      -0.00000051       0.00000031       0.00014234
Ge       2.04206919       1.17898657      11.20121477      -0.00000031       0.00000010       0.00025986
Ge      -0.00000221       2.35797716       2.06247197       0.00000030      -0.00000011      -0.00025941
Ge      -0.00000225       2.35797708       4.56937177       0.00000015      -0.00000014       0.00025755
Ge       2.04206923       1.17898665       8.69431497      -0.00000023       0.00000015      -0.00025795
8
Lattice="5.593058 0.0 0.0 0.0 5.593058 0.0 0.0 0.0 5.593058" Properties=species:S:1:pos:R:3:forces:R:3 energy=-39.55511971 stress="-0.0007466308486031304 -3.9945658405652857e-10 -1.6334029382436486e-08 -3.9945658405652857e-10 -0.0007466816295213787 -1.8499833049117978e-08 -1.6334029382436486e-08 -1.8499833049117978e-08 -0.0007465812473301071" free_energy=-39.55512223 pbc="T T T"
Si       0.00000000       0.00000000       0.00000000      -0.00000002       0.00000035       0.00000025
Si       0.00000000       2.79652900       2.79652900       0.00000002      -0.00000002       0.00000006
Si       2.79652900       0.00000000       2.79652900      -0.00000007       0.00000035       0.00000002
Si       2.79652900       2.79652900       0.00000000      -0.00000001      -0.00000007       0.00000021
Ge       1.39826450       1.39826450       4.19479350      -0.00000032       0.00000006      -0.00000007
Ge       1.39826450       4.19479350       1.39826450       0.00000032      -0.00000004       0.00000022
Ge       4.19479350       1.39826450       1.39826450       0.00000016      -0.00000055      -0.00000065
Ge       4.19479350       4.19479350       4.19479350      -0.00000008      -0.00000008      -0.00000003
24
Lattice="3.8546103 0.0 0.0 0.0 10.75247994 0.0 -0.0 -0.0 12.74985711" Properties=species:S:1:pos:R:3:forces:R:3 energy=-127.97192978 stress="-6.847615835588655e-06 4.993207300706607e-11 -6.241509125883259e-12 4.993207300706607e-11 3.7421904190601957e-06 6.241509125883259e-12 -6.241509125883259e-12 6.241509125883259e-12 5.247043235347152e-06" free_energy=-127.97318381 pbc="T T T"
Si       0.00000000       2.61171232       5.67924267      -0.00000000       0.00011169       0.00036675
Si       1.92730515       2.76452765       7.07061444      -0.00000000      -0.00011169      -0.00036676
Si       0.00000000       2.61171232       0.69568588       0.00000000       0.00011169      -0.00036675
Si       1.92730515       2.76452765      12.05417123      -0.00000001      -0.00011168       0.00036676
Si       1.92730515       0.76476616       8.37413203       0.00000001      -0.00013917      -0.00011892
Si       0.00000000       4.61147381       4.37572508       0.00000000       0.00013917       0.00011895
Si       1.92730515       0.76476616      10.75065363      -0.00000000      -0.00013918       0.00011892
Si       0.00000000       4.61147381       1.99920348       0.00000001       0.00013918      -0.00011895
Si       0.00000000       0.30746491       5.22368390       0.00000000      -0.00017810      -0.00024412
Si       1.92730515       5.06877506       7.52617321      -0.00000000       0.00017810       0.00024415
Si       0.00000000       0.30746491       1.15124465      -0.00000000      -0.00017810       0.00024413
Si       1.92730515       5.06877506      11.59861246       0.00000000       0.00017810      -0.00024415
Si       1.92730515       7.98795229       5.67924267      -0.00000001       0.00011169       0.00036676
Si       0.00000000       8.14076762       7.07061444       0.00000001      -0.00011169      -0.00036674
Si       1.92730515       7.98795229       0.69568588       0.00000000       0.00011168      -0.00036676
Si       0.00000000       8.14076751      12.05417123       0.00000000      -0.00011168       0.00036675
Si       0.00000000       6.14100613       8.37413203       0.00000000      -0.00013918      -0.00011896
Si       1.92730515       9.98771378       4.37572508      -0.00000001       0.00013918       0.00011892
Si       0.00000000       6.14100613      10.75065363      -0.00000001      -0.00013918       0.00011895
Si       1.92730515       9.98771378       1.99920348      -0.00000000       0.00013918      -0.00011892
Si       1.92730515       5.68370488       5.22368390       0.00000000      -0.00017810      -0.00024415
Si       0.00000000      10.44501503       7.52617321      -0.00000001       0.00017809       0.00024412
Si       1.92730515       5.68370488       1.15124465      -0.00000001      -0.00017809       0.00024414
Si       0.00000000      10.44501503      11.59861246       0.00000001       0.00017809      -0.00024413
4
Lattice="3.940618 0.0 0.0 -1.970309 3.412676 0.0 0.0 0.0 6.508731" Properties=species:S:1:pos:R:3:forces:R:3 energy=-19.70163443 stress="-0.000704856034808519 -5.276072494291636e-07 1.6789659548625965e-09 -5.276072494291636e-07 -0.0007052476458156042 2.77747156101805e-09 1.6789659548625965e-09 2.77747156101805e-09 0.0011905984553984576" free_energy=-19.7023884 pbc="T T T"
Si      -0.00000197       2.27511847       2.43791028       0.00004528      -0.00002447       0.00775792
Si       1.97031097       1.13755753       5.69227578      -0.00004512       0.00002481       0.00775823
Ge      -0.00000197       2.27511847       0.00285733       0.00004471      -0.00002460      -0.00775793
Ge       1.97031097       1.13755753       3.25722283      -0.00004486       0.00002426      -0.00775823
8
Lattice="5.4990965 -1e-08 1e-08 -1e-08 5.49909651 2e-08 1e-08 2e-08 5.49909653" Properties=species:S:1:pos:R:3:forces:R:3 energy=-42.42150185 stress="-9.549883453148937e-07 -1.4792376628343324e-09 -8.176376954907069e-10 -1.4792376628343324e-09 -9.542643302562913e-07 3.002165889549847e-09 -8.176376954907069e-10 3.002165889549847e-09 -9.548385490958726e-07" free_energy=-42.42152162 pbc="T T T"
Si       1.39086998       1.39086999       1.39087000      -0.00000098      -0.00000093      -0.00000087
Si       0.00000000       2.74954827       2.74954827       0.00000003      -0.00000000      -0.00000006
Si       2.74954825       2.74954825       0.00000002       0.00000004      -0.00000000      -0.00000003
Si       2.74954826       0.00000001       2.74954827       0.00000006      -0.00000001      -0.00000002
Si       4.10822652       1.39086999       4.10822655       0.00000083      -0.00000093       0.00000094
Si       4.10822651       4.10822652       1.39087001       0.00000090       0.00000096      -0.00000090
Si       1.39086998       4.10822654       4.10822656      -0.00000095       0.00000092       0.00000096
Ge       0.00000000       0.00000000       0.00000000       0.00000007      -0.00000000      -0.00000002
117
Lattice="11.33469759 -0.07821272 -0.11314737 -0.09791443 12.63635881 -0.52215866 -0.19741794 -0.7533816 17.8527849" Properties=species:S:1:pos:R:3:forces:R:3 energy=-562.2550146 stress="-1.3618598422129717e-06 1.4933996470409613e-06 1.2127189816499913e-06 1.4933996470409613e-06 1.5786773862279041e-06 -1.216357781470381e-06 1.2127189816499913e-06 -1.216357781470381e-06 -2.688199255990542e-06" free_energy=-562.45259988 pbc="T T T"
Si       2.65796185       3.87598447      -0.09171460      -0.00006797      -0.00009995      -0.00012649
Si       0.87528825       4.16668326       3.25703351       0.00003187      -0.00006602       0.00017977
Si       6.47599865       3.87032784      -0.17950954       0.00003533       0.00009432      -0.00016462
Si       4.65088357       3.95473816       3.25611556      -0.00020327      -0.00011353      -0.00012729
Si      10.29065205       3.83099914      -0.22346011      -0.00007566      -0.00000128       0.00001643
Si       8.52625527       4.24537038       3.12165782       0.00024343       0.00010504      -0.00005994
Si       2.04386868       9.52026992      17.22655594      -0.00024976       0.00018467      -0.00020370
Si       0.40243472      10.12428021       3.00550594       0.00008399       0.00013893       0.00029383
Si       5.87567340       9.61380087      17.31571298       0.00012704      -0.00023253      -0.00031444
Si       4.17889227      10.39582443       2.71734045       0.00007483       0.00041146       0.00021758
Si       9.97958441      10.19686238      -0.32745466      -0.00058999       0.00005901      -0.00031891
Si       8.07563951      10.22772164       2.90139099      -0.00014874      -0.00001339       0.00043524
Si       0.88786756       0.72158688       1.26643810      -0.00051414       0.00001489      -0.00004977
Si      10.11825209       0.95618923       4.24439645      -0.00022823       0.00010398      -0.00047920
Si       4.44731874       0.80776230       0.50832101      -0.00036889       0.00008976       0.00010457
Si       2.76745146       0.75669723       4.19551981       0.00003690      -0.00016551      -0.00031132
Si       8.32125175       0.82393836       0.97110570      -0.00019359       0.00001041      -0.00008784
Si       6.25075617       0.95281651       4.00039406      -0.00022154      -0.00031964       0.00003743
Si       0.56531498       7.13388770       0.64725147      -0.00032217       0.00041013      -0.00032017
Si       4.40272782       7.06892435       0.76637870      -0.00031552      -0.00013699      -0.00019466
Si       2.57121554       7.38818457       4.03591693      -0.00031590       0.00015946       0.00008155
Si       8.14425324       7.09983497       0.60613579      -0.00054860      -0.00000149       0.00008633
Si       6.44112892       7.15402453       3.85923275      -0.00024479       0.00005971      -0.00006268
Si       2.51328049       6.21676409      -0.28223595       0.00047858      -0.00012638       0.00034269
Si       0.74566383       6.48662703       2.91513981      -0.00007062       0.00002187      -0.00005599
Si       6.03554510       5.46756902      17.33806813       0.00019267      -0.00021336       0.00040335
Si       4.44884017       6.30697799       3.01988359       0.00052382       0.00011936       0.00018355
Si       9.81157126       5.41522976      17.37620832      -0.00000164       0.00016282       0.00014820
Si       8.52602568       6.67491048       2.90359686       0.00012868       0.00005917      -0.00018515
Si       2.29722357      -0.74118215      17.18219847       0.00020705       0.00047792      -0.00044196
Si       0.66853366      -0.10629036       3.51631133       0.00040945       0.00004340       0.00001906
Si       6.37604045      -0.58224149      17.37089374       0.00021642       0.00013984      -0.00004777
Si       4.46683035       0.06022432       2.73369632       0.00022855      -0.00022421      -0.00009011
Si      10.19077320      12.53066119      -0.48510643       0.00012008       0.00004737       0.00032013
Si       8.25327476      -0.02537531       3.20070453       0.00023615      -0.00024447      -0.00003870
Si       0.79520536       3.11547589       1.14425323      -0.00002245      -0.00024112       0.00025367
Si      10.32550984       3.37395709       4.32652662       0.00028722      -0.00044861      -0.00021408
Si       4.59972015       3.13221972       1.00441103       0.00003452       0.00003184      -0.00009915
Si       2.71255520       3.12630849       4.26829640      -0.00025948       0.00007807       0.00014777
Si       8.39792912       3.20273443       0.99591406      -0.00006698      -0.00003176      -0.00003084
Si       6.70819255       3.25314063       4.31511281       0.00009576       0.00002171       0.00016952
Si       0.57063183       9.46315678       0.77886549       0.00013115      -0.00049938      -0.00028353
Si       9.83028485       8.77217459       3.75375749       0.00012145       0.00006811      -0.00024500
Si       4.17283632       9.45910769       0.54015990       0.00021823       0.00042599      -0.00011532
Si       2.41286163       9.73240710       4.14174263      -0.00007367       0.00034503      -0.00013404
Si       7.97051843       9.47354728       0.61606847      -0.00009886      -0.00002292       0.00003345
Si       9.53842554       8.35940353      15.47788456      -0.00008270      -0.00026512       0.00038894
Si       6.04317035       9.47730511       3.80086258       0.00011196       0.00019573       0.00014765
Si       6.46044481      11.87264855      12.33407717      -0.00012406      -0.00008414       0.00002271
Si      11.05023241       6.85101645      14.12257473       0.00006037      -0.00038192       0.00007922
Si       1.64836802       9.85829916      13.47500113       0.00013595       0.00011674      -0.00033804
Si       1.54236101       8.29691722      15.20758504       0.00010351       0.00022662       0.00000946
Si       4.61208321       1.86511310      14.59232131       0.00058454      -0.00000340       0.00033900
Si       2.56318592       1.92408469      15.72808350       0.00025818      -0.00011786       0.00055370
Si       4.07336027       7.61695997      11.62566913      -0.00055815      -0.00005484       0.00035960
Si       5.45861980       3.79010239      13.50955860      -0.00032341       0.00006505       0.00024913
Si       6.47513091       1.49046310      15.95277711      -0.00012027      -0.00035751      -0.00000921
Si      11.03286800      11.10717020      13.39658983       0.00024415      -0.00014765       0.00009708
Si       3.33258067      11.05175207      14.60583617      -0.00052283       0.00010215      -0.00024212
Si       8.97742792      10.03564333      13.96695515       0.00007888      -0.00021772      -0.00005011
Si       0.61607870       2.17203592      12.01051432      -0.00023871      -0.00031721       0.00012515
Si       5.66155738       7.71484575      13.46874934      -0.00014676       0.00039987      -0.00030257